%VERSION  VERSION_STAMP = V0001.000  DATE = 07/11/26  14:18:46                  
%FLAG TITLE                                                                     
%FORMAT(20a4)                                                                   
MOL                                                                             
%FLAG POINTERS                                                                  
%FORMAT(10I8)                                                                   
      53      11      23      33      50      45      83      73       0       0
     278       1      33      45      73      22      41      19      15       0
       0       0       0       0       0       0       0       0      53       0
       0
%FLAG ATOM_NAME                                                                 
%FORMAT(20a4)                                                                   
C1  C2  C3  C4  C5  N1  C6  Cl1 C7  C8  O1  N2  C9  C10 C11 C12 C13 C14 C15 C16 
C17 C18 C19 C20 N3  N4  N5  N6  C21 C22 H1  H2  H3  H4  H5  H6  H7  H8  H9  H10 
H11 H12 H13 H14 H15 H16 H17 H18 H19 H20 H21 H22 H23 
%FLAG CHARGE                                                                    
%FORMAT(5E16.8)                                                                 
 -1.67827383E+00 -1.39218372E+00 -1.31929452E+00 -1.88965251E+00  7.83194454E+00
 -1.18627173E+01  7.11216369E+00 -2.15023140E+00 -4.77242037E+00  3.73010481E+00
 -1.09661801E+01 -3.36930327E+00  1.30471668E+00 -1.86414129E+00 -2.14112025E+00
 -2.15023140E+00 -1.18444950E+00 -3.46223700E-01 -2.22312060E+00 -1.96800840E+00
 -2.36889900E+00 -1.47600630E+00 -2.35978785E+00  8.10892350E+00 -6.79691790E+00
 -9.29337300E-01 -3.58614864E+00 -3.12330222E+00 -2.15023140E+00 -2.14112025E+00
  6.44468084E-01  6.44468084E-01  6.44468084E-01  6.59647260E-01  6.59647260E-01
  1.05142671E+00  1.05142671E+00  1.04231556E+00  1.04231556E+00  1.19720511E+00
  1.19720511E+00  7.47114300E+00  1.57987341E+00  1.57987341E+00  2.62401120E+00
  2.70601155E+00  2.62401120E+00  2.56934430E+00  2.62401120E+00  2.93379030E+00
  6.24478221E+00  2.70601155E+00  2.62401120E+00
%FLAG ATOMIC_NUMBER                                                             
%FORMAT(10I8)                                                                   
       6       6       6       6       6       7       6      17       6       6
       8       7       6       6       6       6       6       6       6       6
       6       6       6       6       7       7       7       7       6       6
       1       1       1       1       1       1       1       1       1       1
       1       1       1       1       1       1       1       1       1       1
       1       1       1
%FLAG MASS                                                                      
%FORMAT(5E16.8)                                                                 
  1.20100000E+01  1.20100000E+01  1.20100000E+01  1.20100000E+01  1.20100000E+01
  1.40100000E+01  1.20100000E+01  3.54500000E+01  1.20100000E+01  1.20100000E+01
  1.60000000E+01  1.40100000E+01  1.20100000E+01  1.20100000E+01  1.20100000E+01
  1.20100000E+01  1.20100000E+01  1.20100000E+01  1.20100000E+01  1.20100000E+01
  1.20100000E+01  1.20100000E+01  1.20100000E+01  1.20100000E+01  1.40100000E+01
  1.40100000E+01  1.40100000E+01  1.40100000E+01  1.20100000E+01  1.20100000E+01
  1.00800000E+00  1.00800000E+00  1.00800000E+00  1.00800000E+00  1.00800000E+00
  1.00800000E+00  1.00800000E+00  1.00800000E+00  1.00800000E+00  1.00800000E+00
  1.00800000E+00  1.00800000E+00  1.00800000E+00  1.00800000E+00  1.00800000E+00
  1.00800000E+00  1.00800000E+00  1.00800000E+00  1.00800000E+00  1.00800000E+00
  1.00800000E+00  1.00800000E+00  1.00800000E+00
%FLAG ATOM_TYPE_INDEX                                                           
%FORMAT(10I8)                                                                   
       1       1       1       1       2       3       2       4       2       1
       5       6       1       2       2       2       2       2       2       2
       2       2       2       2       3       3       3       6       2       2
       7       7       7       7       7       7       7       7       7       8
       8       9       8       8      10      10      10      10      10      10
      11      10      10
%FLAG NUMBER_EXCLUDED_ATOMS                                                     
%FORMAT(10I8)                                                                   
      10      12      13      12      14       8       8       3      10       6
       4      10       9      11      10       9      13      15       9       7
       7       7      10       6       4       3       2       1       4       5
       4       3       2       3       2       3       2       1       1       2
       1       1       1       1       1       1       1       1       1       1
       1       1       1
%FLAG NONBONDED_PARM_INDEX                                                      
%FORMAT(10I8)                                                                   
       1       2       4       7      11      16      22      29      37      46
      56       2       3       5       8      12      17      23      30      38
      47      57       4       5       6       9      13      18      24      31
      39      48      58       7       8       9      10      14      19      25
      32      40      49      59      11      12      13      14      15      20
      26      33      41      50      60      16      17      18      19      20
      21      27      34      42      51      61      22      23      24      25
      26      27      28      35      43      52      62      29      30      31
      32      33      34      35      36      44      53      63      37      38
      39      40      41      42      43      44      45      54      64      46
      47      48      49      50      51      52      53      54      55      65
      56      57      58      59      60      61      62      63      64      65
      66
%FLAG RESIDUE_LABEL                                                             
%FORMAT(20a4)                                                                   
MOL 
%FLAG RESIDUE_POINTER                                                           
%FORMAT(10I8)                                                                   
       1
%FLAG BOND_FORCE_CONSTANT                                                       
%FORMAT(5E16.8)                                                                 
  2.32500000E+02  3.75900000E+02  2.62600000E+02  4.50700000E+02  3.54500000E+02
  3.69100000E+02  1.90100000E+02  4.16100000E+02  2.93400000E+02  3.75900000E+02
  5.63500000E+02  2.62900000E+02  2.50300000E+02  3.78600000E+02  3.95700000E+02
  3.68400000E+02  2.77600000E+02  3.08200000E+02  2.90700000E+02  3.74700000E+02
  3.00500000E+02  5.35100000E+02
%FLAG BOND_EQUIL_VALUE                                                          
%FORMAT(5E16.8)                                                                 
  1.53800000E+00  1.09700000E+00  1.50200000E+00  1.31700000E+00  1.38000000E+00
  1.36900000E+00  1.73500000E+00  1.37300000E+00  1.42300000E+00  1.09700000E+00
  9.73000000E-01  1.46300000E+00  1.51600000E+00  1.39800000E+00  1.08600000E+00
  1.40600000E+00  1.48500000E+00  1.45600000E+00  1.36500000E+00  1.29900000E+00
  1.35600000E+00  1.01000000E+00
%FLAG ANGLE_FORCE_CONSTANT                                                      
%FORMAT(5E16.8)                                                                 
  6.49000000E+01  4.68000000E+01  6.55000000E+01  8.39000000E+01  8.24000000E+01
  4.77000000E+01  7.39000000E+01  7.05000000E+01  6.37000000E+01  1.15500000E+02
  9.06000000E+01  9.11000000E+01  6.68000000E+01  9.27000000E+01  7.17000000E+01
  8.54000000E+01  4.79000000E+01  4.90000000E+01  6.25000000E+01  8.33000000E+01
  6.15000000E+01  6.56000000E+01  4.75000000E+01  6.88000000E+01  4.87000000E+01
  6.84000000E+01  6.61000000E+01  6.89000000E+01  4.85000000E+01  6.60000000E+01
  6.71000000E+01  8.53000000E+01  8.36000000E+01  9.17000000E+01  8.81000000E+01
  4.71000000E+01  1.13600000E+02  1.16800000E+02  6.14000000E+01  3.90000000E+01
  3.88000000E+01
%FLAG ANGLE_EQUIL_VALUE                                                         
%FORMAT(5E16.8)                                                                 
  1.94621748E+00  1.91637234E+00  1.95354787E+00  2.13645845E+00  2.14204351E+00
  1.92841512E+00  1.84114862E+00  1.91811767E+00  2.20714432E+00  1.95860933E+00
  2.11691076E+00  1.94866095E+00  2.08479669E+00  1.86732857E+00  2.15391175E+00
  1.94010883E+00  1.91357981E+00  1.87204096E+00  1.92440086E+00  1.96995397E+00
  1.89856997E+00  2.10783504E+00  1.91218355E+00  2.09474507E+00  2.09230160E+00
  2.10643878E+00  2.11376916E+00  2.06612165E+00  2.09195254E+00  2.16944519E+00
  2.10818411E+00  2.15094469E+00  2.15460989E+00  1.88181481E+00  1.96105279E+00
  2.19038915E+00  1.94534482E+00  1.85423859E+00  2.08654202E+00  1.87762601E+00
  1.89298492E+00
%FLAG DIHEDRAL_FORCE_CONSTANT                                                   
%FORMAT(5E16.8)                                                                 
  1.10000000E-01  2.90000000E-01  1.30000000E-01  8.00000000E-02  1.55555556E-01
  0.00000000E+00  4.75000000E+00  1.70000000E+00  0.00000000E+00  0.00000000E+00
  4.00000000E+00  1.66666667E-01  3.62500000E+00  7.95000000E-01  7.00000000E-01
  4.80000000E+00  1.20000000E-01  1.13000000E-01  1.10000000E+00
%FLAG DIHEDRAL_PERIODICITY                                                      
%FORMAT(5E16.8)                                                                 
  1.00000000E+00  2.00000000E+00  3.00000000E+00  3.00000000E+00  3.00000000E+00
  3.00000000E+00  2.00000000E+00  2.00000000E+00  2.00000000E+00  2.00000000E+00
  2.00000000E+00  3.00000000E+00  2.00000000E+00  2.00000000E+00  2.00000000E+00
  2.00000000E+00  3.00000000E+00  3.00000000E+00  2.00000000E+00
%FLAG DIHEDRAL_PHASE                                                            
%FORMAT(5E16.8)                                                                 
  0.00000000E+00  3.14159400E+00  0.00000000E+00  0.00000000E+00  0.00000000E+00
  0.00000000E+00  3.14159400E+00  3.14159400E+00  0.00000000E+00  3.14159400E+00
  3.14159400E+00  0.00000000E+00  3.14159400E+00  3.14159400E+00  3.14159400E+00
  3.14159400E+00  0.00000000E+00  0.00000000E+00  3.14159400E+00
%FLAG SCEE_SCALE_FACTOR                                                         
%FORMAT(5E16.8)                                                                 
  1.20000000E+00  1.20000000E+00  1.20000000E+00  1.20000000E+00  1.20000000E+00
  1.20000000E+00  1.20000000E+00  1.20000000E+00  1.20000000E+00  1.20000000E+00
  1.20000000E+00  1.20000000E+00  1.20000000E+00  1.20000000E+00  1.20000000E+00
  1.20000000E+00  1.20000000E+00  1.20000000E+00  0.00000000E+00
%FLAG SCNB_SCALE_FACTOR                                                         
%FORMAT(5E16.8)                                                                 
  2.00000000E+00  2.00000000E+00  2.00000000E+00  2.00000000E+00  2.00000000E+00
  2.00000000E+00  2.00000000E+00  2.00000000E+00  2.00000000E+00  2.00000000E+00
  2.00000000E+00  2.00000000E+00  2.00000000E+00  2.00000000E+00  2.00000000E+00
  2.00000000E+00  2.00000000E+00  2.00000000E+00  0.00000000E+00
%FLAG SOLTY                                                                     
%FORMAT(5E16.8)                                                                 
  0.00000000E+00  0.00000000E+00  0.00000000E+00  0.00000000E+00  0.00000000E+00
  0.00000000E+00  0.00000000E+00  0.00000000E+00  0.00000000E+00  0.00000000E+00
  0.00000000E+00  0.00000000E+00  0.00000000E+00  0.00000000E+00  0.00000000E+00
%FLAG LENNARD_JONES_ACOEF                                                       
%FORMAT(5E16.8)                                                                 
  1.02073671E+06  8.43969952E+05  6.96551276E+05  9.31115275E+05  7.69642101E+05
  8.49322032E+05  1.80018612E+06  1.49062160E+06  1.64251971E+06  3.17107030E+06
  7.18991463E+05  5.92438683E+05  6.55497149E+05  1.27155594E+06  5.03152404E+05
  9.96191545E+05  8.20152428E+05  9.08092643E+05  1.76299915E+06  6.96017793E+05
  9.62429652E+05  1.00235148E+05  8.12662403E+04  9.11435380E+04  1.79601155E+05
  6.80216136E+04  9.33839501E+04  7.94617769E+03  6.97998263E+04  5.63013422E+04
  6.34160397E+04  1.25585106E+05  4.69084694E+04  6.42436358E+04  5.22955465E+03
  3.39005767E+03  3.03553352E+02  2.25372434E+02  2.72118326E+02  5.83653537E+02
  1.74176419E+02  2.29317644E+02  8.80612241E+00  4.36660257E+00  1.10360882E-05
  9.27554496E+04  7.52549148E+04  8.43518904E+04  1.66104821E+05  6.30298721E+04
  8.65595848E+04  7.41026906E+03  4.88692384E+03  8.53132435E+00  6.90855956E+03
  2.23577481E+03  1.71458823E+03  2.01475241E+03  4.18912581E+03  1.36475542E+03
  1.82491629E+03  9.47421632E+01  5.24570081E+01  2.61760843E-03  9.04434904E+01
  1.34728399E-01
%FLAG LENNARD_JONES_BCOEF                                                       
%FORMAT(5E16.8)                                                                 
  6.63431737E+02  5.90251928E+02  5.24668528E+02  6.12468585E+02  5.44830041E+02
  5.65406768E+02  1.10195051E+03  9.81118883E+02  1.01742263E+03  1.82923847E+03
  5.36620538E+02  4.76608379E+02  4.95260330E+02  8.92559477E+02  4.32634597E+02
  7.68900328E+02  6.82622272E+02  7.09588248E+02  1.27934796E+03  6.19405188E+02
  8.86629877E+02  1.37787728E+02  1.21392023E+02  1.27000718E+02  2.30684859E+02
  1.09393126E+02  1.56025608E+02  2.57122925E+01  1.14981426E+02  1.01040256E+02
  1.05935811E+02  1.92900608E+02  9.08431526E+01  1.29412081E+02  2.08590256E+01
  1.67944276E+01  5.22789272E+00  4.40751799E+00  4.78443613E+00  9.06673074E+00
  3.81654050E+00  5.33073545E+00  5.90150328E-01  4.15568027E-01  4.55498033E-04
  1.24325688E+02  1.09570372E+02  1.14599119E+02  2.08087638E+02  9.87712192E+01
  1.40899023E+02  2.32899892E+01  1.89134207E+01  5.44840215E-01  2.10929191E+01
  1.71355763E+01  1.46824710E+01  1.57231024E+01  2.93366416E+01  1.29026271E+01
  1.81620725E+01  2.33785449E+00  1.73959275E+00  8.47240681E-03  2.14252117E+00
  7.34107347E-02
%FLAG BONDS_INC_HYDROGEN                                                        
%FORMAT(10I8)                                                                   
       0      90       2       0      93       2       0      96       2       3
      99       2       3     102       2       6     105       2       6     108
       2       9     111       2       9     114       2      27     117      10
      27     120      10      30     123      11      36     126      10      36
     129      10      42     132      15      45     135      15      54     138
      15      57     141      15      60     144      15      63     147      15
      81     150      22      84     153      15      87     156      15
%FLAG BONDS_WITHOUT_HYDROGEN                                                    
%FORMAT(10I8)                                                                   
       0       3       1       3       6       1       6       9       1       9
      12       3      12      15       4      12      33       5      15      18
       6      18      21       7      18      24       8      24      27       3
      24      33       5      27      30       9      33      36      12      36
      39      13      39      42      14      39      87      14      42      45
      14      45      48      16      48      51      17      48      84      16
      51      54      16      51      66      16      54      57      14      57
      60      14      60      63      14      63      66      14      66      69
      18      69      72       4      69      81       5      72      75      19
      75      78      20      78      81      21      84      87      14
%FLAG ANGLES_INC_HYDROGEN                                                       
%FORMAT(10I8)                                                                   
       0       3      99       2       0       3     102       2       3       0
      90       2       3       0      93       2       3       0      96       2
       3       6     105       2       3       6     108       2       6       3
      99       2       6       3     102       2       6       9     111       2
       6       9     114       2       9       6     105       2       9       6
     108       2      12       9     111       6      12       9     114       6
      24      27     117      17      24      27     120      17      27      30
     123      18      30      27     117      19      30      27     120      19
      33      36     126      21      33      36     129      21      39      36
     126      23      39      36     129      23      39      42     132      25
      39      87     156      25      42      45     135      25      45      42
     132      25      48      45     135      29      48      84     153      29
      51      54     138      29      54      57     141      25      57      54
     138      25      57      60     144      25      60      57     141      25
      60      63     147      25      63      60     144      25      66      63
     147      25      69      81     150      36      78      81     150      39
      84      87     156      25      87      84     153      25      90       0
      93      40      90       0      96      40      93       0      96      40
      99       3     102      40     105       6     108      40     111       9
     114      40     117      27     120      41     126      36     129      41
%FLAG ANGLES_WITHOUT_HYDROGEN                                                   
%FORMAT(10I8)                                                                   
       0       3       6       1       3       6       9       1       6       9
      12       3       9      12      15       4       9      12      33       5
      12      15      18       7      12      33      24       8      12      33
      36       9      15      12      33      10      15      18      21      11
      15      18      24      12      18      24      27      13      18      24
      33      14      21      18      24      15      24      27      30      16
      24      33      36       9      27      24      33       5      33      36
      39      20      36      39      42      22      36      39      87      22
      39      42      45      24      39      87      84      24      42      39
      87      24      42      45      48      26      45      48      51      27
      45      48      84      28      48      51      54      27      48      51
      66      27      48      84      87      26      51      48      84      27
      51      54      57      26      51      66      63      26      51      66
      69      30      54      51      66      28      54      57      60      24
      57      60      63      24      60      63      66      24      63      66
      69      31      66      69      72      32      66      69      81      33
      69      72      75      34      69      81      78      35      72      69
      81      10      72      75      78      37      75      78      81      38
%FLAG DIHEDRALS_INC_HYDROGEN                                                    
%FORMAT(10I8)                                                                   
       0       3       6     105       4       0       3       6     108       4
       3       6       9     111       4       3       6       9     114       4
      90       0       3       6       4      93       0       3       6       4
      96       0       3       6       4       9       6       3      99       4
       9       6       3     102       4      12       9       6     105       5
      12       9       6     108       5      12      33      36     126      10
      12      33      36     129      10      15      12       9     111       6
      15      12       9     114       6      18      24      27     117       6
      18      24      27     120       6      24      27      30     123      12
      24      33      36     126      10      24      33      36     129      10
      33      24      27     117       6      33      24      27     120       6
      33      12       9     111       6      33      12       9     114       6
      36      39      42     132      13      36      39      87     156      13
      39      42      45     135      13      39      87      84     153      13
      42      39      36     126       9      42      39      36     129       9
      42      39      87     156      13      45      48      84     153      13
      48      45      42     132      13      48      51      54     138      13
      48      84      87     156      13      51      48      45     135      13
      51      48      84     153      13      51      54      57     141      13
      51      66      63     147      13      54      57      60     144      13
      57      60      63     147      13      60      57      54     138      13
      63      60      57     141      13      66      63      60     144      13
      66      69      81     150       8      66      51      54     138      13
      69      66      63     147      13      72      69      81     150       8
      75      78      81     150      16      84      48      45     135      13
      87      39      36     126       9      87      39      36     129       9
      87      39      42     132      13      90       0       3      99      17
      90       0       3     102      17      93       0       3      99      17
      93       0       3     102      17      96       0       3      99      17
      96       0       3     102      17      99       3       6     105      17
      99       3       6     108      17     102       3       6     105      17
     102       3       6     108      17     105       6       9     111      17
     105       6       9     114      17     108       6       9     111      17
     108       6       9     114      17     117      27      30     123      18
     120      27      30     123      18     132      42      45     135      13
     138      54      57     141      13     141      57      60     144      13
     144      60      63     147      13     153      84      87     156      13
      39      45     -42    -132      19      42      48     -45    -135      19
      57      51     -54    -138      19      54      60     -57    -141      19
      57      63     -60    -144      19      60      66     -63    -147      19
      69     150     -81     -78      19      87      48     -84    -153      19
      39      84     -87    -156      19
%FLAG DIHEDRALS_WITHOUT_HYDROGEN                                                
%FORMAT(10I8)                                                                   
       0       3       6       9       1       0       3      -6       9       2
       0       3      -6       9       3       3       6       9      12       5
       6       9      12      15       6       6       9      12      33       6
       9      12      15      18       7       9      12      33      24       8
       9      12      33      36       8      12      15      18      21       7
      12      15     -18      24       7      12      33     -24      18       8
      12      33      24      27       8      12      33      36      39       9
      15      12     -33      24       8      15      12      33      36       8
      15      18      24      27      11      15      18     -24      33      11
      18      15     -12      33       7      18      24      27      30       6
      18      24      33      36       8      21      18      24      27      11
      21      18      24      33      11      24      33      36      39       9
      27      24      33      36       8      30      27      24      33       6
      33      36      39      42       9      33      36      39      87       9
      36      39      42      45      13      36      39      87      84      13
      39      42      45      48      13      39      87     -84      48      13
      42      39      87      84      13      42      45      48      51      13
      42      45     -48      84      13      45      42      39      87      13
      45      48      51      54      14      45      48      51      66      14
      45      48     -84      87      13      48      51      54      57      13
      48      51      66      63      13      48      51      66      69      13
      51      48      84      87      13      51      54      57      60      13
      51      66     -63      60      13      51      66      69      72      15
      51      66      69      81      15      54      51      48      84      14
      54      51      66      63      13      54      51      66      69      13
      54      57     -60      63      13      57      54      51      66      13
      57      60     -63      66      13      60      63      66      69      13
      63      66      69      72      15      63      66      69      81      15
      66      69      72      75       7      66      69      81      78       8
      66      51      48      84      14      69      72     -75      78      11
      69      81     -78      75      16      72      69     -81      78       8
      72      75     -78      81      11      75      72     -69      81       7
       9      33     -12     -15      19      24      21     -18     -15      19
      27      18     -24     -33      19      36      12     -33     -24      19
      42      87     -39     -36      19      45      84     -48     -51      19
      54      66     -51     -48      19      63      69     -66     -51      19
      66      81     -69     -72      19
%FLAG EXCLUDED_ATOMS_LIST                                                       
%FORMAT(10I8)                                                                   
       2       3       4      31      32      33      34      35      36      37
       3       4       5      31      32      33      34      35      36      37
      38      39       4       5       6      12      31      32      33      34
      35      36      37      38      39       5       6       7       9      12
      13      34      35      36      37      38      39       6       7       8
       9      10      12      13      14      36      37      38      39      43
      44       7       8       9      10      12      13      38      39       8
       9      10      11      12      13      40      41       9      10      12
      10      11      12      13      14      40      41      42      43      44
      11      12      13      40      41      42      12      40      41      42
      13      14      15      30      38      39      40      41      43      44
      14      15      16      29      30      43      44      45      53      15
      16      17      29      30      43      44      45      46      52      53
      16      17      18      29      30      43      44      45      46      53
      17      18      19      23      29      30      45      46      52      18
      19      20      22      23      24      29      30      45      46      47
      52      53      19      20      21      22      23      24      25      28
      29      30      46      47      48      50      52      20      21      22
      23      24      29      47      48      49      21      22      23      47
      48      49      50      22      23      24      47      48      49      50
      23      24      25      28      48      49      50      24      25      26
      27      28      29      47      49      50      51      25      26      27
      28      50      51      26      27      28      51      27      28      51
      28      51      51      30      46      52      53      43      44      45
      52      53      32      33      34      35      33      34      35      34
      35      35      36      37      36      37      37      38      39      38
      39      39       0      41      42      42       0      44       0      46
       0      48      49      50       0       0      53       0
%FLAG HBOND_ACOEF                                                               
%FORMAT(5E16.8)                                                                 

%FLAG HBOND_BCOEF                                                               
%FORMAT(5E16.8)                                                                 

%FLAG HBCUT                                                                     
%FORMAT(5E16.8)                                                                 

%FLAG AMBER_ATOM_TYPE                                                           
%FORMAT(20a4)                                                                   
c3  c3  c3  c3  cc  nd  cd  cl  cc  c3  oh  na  c3  ca  ca  ca  cp  cp  ca  ca  
ca  ca  ca  cc  nd  nd  nc  na  ca  ca  hc  hc  hc  hc  hc  hc  hc  hc  hc  h1  
h1  ho  h1  h1  ha  ha  ha  ha  ha  ha  hn  ha  ha  
%FLAG TREE_CHAIN_CLASSIFICATION                                                 
%FORMAT(20a4)                                                                   
BLA BLA BLA BLA BLA BLA BLA BLA BLA BLA BLA BLA BLA BLA BLA BLA BLA BLA BLA BLA 
BLA BLA BLA BLA BLA BLA BLA BLA BLA BLA BLA BLA BLA BLA BLA BLA BLA BLA BLA BLA 
BLA BLA BLA BLA BLA BLA BLA BLA BLA BLA BLA BLA BLA 
%FLAG JOIN_ARRAY                                                                
%FORMAT(10I8)                                                                   
       0       0       0       0       0       0       0       0       0       0
       0       0       0       0       0       0       0       0       0       0
       0       0       0       0       0       0       0       0       0       0
       0       0       0       0       0       0       0       0       0       0
       0       0       0       0       0       0       0       0       0       0
       0       0       0
%FLAG IROTAT                                                                    
%FORMAT(10I8)                                                                   
       0       0       0       0       0       0       0       0       0       0
       0       0       0       0       0       0       0       0       0       0
       0       0       0       0       0       0       0       0       0       0
       0       0       0       0       0       0       0       0       0       0
       0       0       0       0       0       0       0       0       0       0
       0       0       0
%FLAG RADIUS_SET                                                                
%FORMAT(1a80)                                                                   
modified Bondi radii (mbondi)                                                   
%FLAG RADII                                                                     
%FORMAT(5E16.8)                                                                 
  1.70000000E+00  1.70000000E+00  1.70000000E+00  1.70000000E+00  1.70000000E+00
  1.55000000E+00  1.70000000E+00  1.70000000E+00  1.70000000E+00  1.70000000E+00
  1.50000000E+00  1.55000000E+00  1.70000000E+00  1.70000000E+00  1.70000000E+00
  1.70000000E+00  1.70000000E+00  1.70000000E+00  1.70000000E+00  1.70000000E+00
  1.70000000E+00  1.70000000E+00  1.70000000E+00  1.70000000E+00  1.55000000E+00
  1.55000000E+00  1.55000000E+00  1.55000000E+00  1.70000000E+00  1.70000000E+00
  1.30000000E+00  1.30000000E+00  1.30000000E+00  1.30000000E+00  1.30000000E+00
  1.30000000E+00  1.30000000E+00  1.30000000E+00  1.30000000E+00  1.30000000E+00
  1.30000000E+00  8.00000000E-01  1.30000000E+00  1.30000000E+00  1.30000000E+00
  1.30000000E+00  1.30000000E+00  1.30000000E+00  1.30000000E+00  1.30000000E+00
  1.30000000E+00  1.30000000E+00  1.30000000E+00
%FLAG SCREEN                                                                    
%FORMAT(5E16.8)                                                                 
  7.20000000E-01  7.20000000E-01  7.20000000E-01  7.20000000E-01  7.20000000E-01
  7.90000000E-01  7.20000000E-01  8.00000000E-01  7.20000000E-01  7.20000000E-01
  8.50000000E-01  7.90000000E-01  7.20000000E-01  7.20000000E-01  7.20000000E-01
  7.20000000E-01  7.20000000E-01  7.20000000E-01  7.20000000E-01  7.20000000E-01
  7.20000000E-01  7.20000000E-01  7.20000000E-01  7.20000000E-01  7.90000000E-01
  7.90000000E-01  7.90000000E-01  7.90000000E-01  7.20000000E-01  7.20000000E-01
  8.50000000E-01  8.50000000E-01  8.50000000E-01  8.50000000E-01  8.50000000E-01
  8.50000000E-01  8.50000000E-01  8.50000000E-01  8.50000000E-01  8.50000000E-01
  8.50000000E-01  8.50000000E-01  8.50000000E-01  8.50000000E-01  8.50000000E-01
  8.50000000E-01  8.50000000E-01  8.50000000E-01  8.50000000E-01  8.50000000E-01
  8.50000000E-01  8.50000000E-01  8.50000000E-01
%FLAG IPOL                                                                      
%FORMAT(1I8)                                                                    
       0
