MOL
    53
   3.4530000  -1.2770000   2.0050000   2.4840000  -1.5710000   0.8720000
   2.3780000  -3.0720000   0.5960000   1.3210000  -3.4030000  -0.4620000
   1.6940000  -2.9040000  -1.8240000   2.8570000  -3.1200000  -2.4060000
   2.7870000  -2.5370000  -3.6400000   4.0870000  -2.5880000  -4.7370000
   1.5540000  -1.9530000  -3.8370000   1.0080000  -1.2320000  -5.0050000
   0.0040000  -2.0630000  -5.5640000   0.8680000  -2.1720000  -2.6550000
  -0.5050000  -1.7660000  -2.3680000  -0.6100000  -0.5630000  -1.4530000
   0.2820000   0.5170000  -1.5130000   0.0970000   1.6460000  -0.7060000
  -0.9920000   1.7350000   0.1740000  -1.2040000   2.9380000   0.9990000
  -1.5250000   4.1430000   0.3370000  -1.7940000   5.3150000   1.0430000
  -1.7550000   5.3090000   2.4310000  -1.4360000   4.1330000   3.1090000
  -1.1450000   2.9420000   2.4150000  -0.7880000   1.7730000   3.2210000
  -1.2160000   1.4730000   4.4340000  -0.5890000   0.3050000   4.7950000
   0.2290000  -0.1080000   3.8400000   0.1170000   0.8080000   2.8700000
  -1.8880000   0.6580000   0.2260000  -1.7010000  -0.4730000  -0.5760000
   4.4590000  -1.6350000   1.7640000   3.5090000  -0.1990000   2.1850000
   3.1300000  -1.7590000   2.9330000   1.4960000  -1.1790000   1.1320000
   2.8190000  -1.0410000  -0.0270000   2.1070000  -3.5880000   1.5250000
   3.3580000  -3.4620000   0.2920000   1.2160000  -4.4930000  -0.5230000
   0.3530000  -3.0160000  -0.1320000   1.7640000  -1.0270000  -5.7690000
   0.5560000  -0.2790000  -4.7160000   0.4580000  -2.8550000  -5.9050000
  -1.0030000  -2.6400000  -1.9330000  -1.0180000  -1.5420000  -3.3070000
   1.1300000   0.5060000  -2.1940000   0.8060000   2.4690000  -0.7830000
  -1.5890000   4.1650000  -0.7500000  -2.0460000   6.2280000   0.5090000
  -1.9730000   6.2160000   2.9890000  -1.4090000   4.1490000   4.1990000
   0.6680000   0.7180000   2.0270000  -2.7570000   0.7000000   0.8820000
  -2.4330000  -1.2780000  -0.5190000
