MOL
    96
  -2.4720000   6.1380000  -8.0300000  -2.0540000   6.5830000  -6.7470000
  -1.7840000   5.6360000  -5.7930000  -1.8130000   4.2650000  -6.0210000
  -1.5140000   3.3810000  -4.9850000  -1.1840000   3.8430000  -3.6930000
  -0.8760000   2.9590000  -2.6340000  -0.8980000   1.6160000  -2.9290000
  -0.3850000   0.6990000  -1.9700000   0.0680000  -0.5860000  -2.6690000
  -0.2120000  -1.7190000  -1.6730000   1.0110000  -2.4960000  -1.2170000
   2.1520000  -2.0580000  -1.2710000   0.6570000  -3.6770000  -0.5910000
   1.5280000  -4.4050000   0.3190000   2.3820000  -3.5500000   1.2530000
   3.5810000  -3.7340000   1.4000000   1.6600000  -2.5480000   1.9060000
   2.2750000  -1.5150000   3.0300000   2.3990000  -2.2480000   4.2710000
   1.4200000  -0.3460000   2.9630000   3.9110000  -0.9620000   2.4880000
   4.6110000  -0.0780000   3.4890000   5.0790000  -1.4920000   3.2790000
   2.0710000  -5.7760000  -0.0410000   0.8940000  -5.6920000   0.8790000
   0.9930000  -5.9510000   2.3180000   0.0880000  -5.6150000   3.2560000
  -1.2340000  -4.9230000   3.0240000  -1.3470000  -3.6290000   3.8350000
  -2.7080000  -2.9330000   3.7220000  -3.1270000  -2.4970000   2.3100000
  -2.1880000  -1.6050000   1.6130000  -1.8680000  -0.3460000   2.2880000
  -1.7700000  -1.9590000   0.3370000  -2.0690000  -3.0500000  -0.1590000
  -0.8230000  -1.0340000  -0.4190000  -1.4700000   0.2070000  -1.0130000
  -0.5940000   3.4720000  -1.3740000  -0.5980000   4.8460000  -1.1950000
  -0.3190000   5.4120000   0.1360000  -0.2260000   4.6900000   1.2400000
   0.0710000   5.4930000   2.3330000   0.2460000   4.8580000   3.6870000
   1.1350000   3.6140000   3.6210000  -1.1050000   4.5170000   4.3160000
   0.1740000   6.8380000   2.0380000  -0.0860000   7.1020000   0.3660000
  -0.8630000   5.7060000  -2.2040000  -1.1580000   5.2310000  -3.4380000
  -1.4540000   6.1010000  -4.5030000  -1.4230000   7.8240000  -4.2140000
  -1.6830000   5.5630000  -8.5250000  -3.4010000   5.5630000  -7.9660000
  -2.6690000   7.0230000  -8.6410000  -2.0610000   3.8440000  -6.9910000
  -1.5480000   2.3110000  -5.1910000   0.4850000   1.1010000  -1.4340000
  -0.5110000  -0.7480000  -3.5870000   1.1150000  -0.5150000  -2.9780000
  -0.9060000  -2.4220000  -2.1540000  -0.3250000  -3.9610000  -0.6270000
   0.6530000  -2.5340000   1.8250000   4.0370000  -0.7590000   1.4350000
   5.2360000   0.7230000   3.1090000   4.1110000   0.1600000   4.4220000
   6.0120000  -1.6500000   2.7510000   4.9060000  -2.2130000   4.0690000
   3.0350000  -6.0710000   0.3650000   1.9110000  -6.1290000  -1.0530000
  -0.0410000  -6.0380000   0.4460000   1.8920000  -6.4640000   2.6590000
   0.3070000  -5.8770000   4.2910000  -1.3760000  -4.7080000   1.9620000
  -2.0360000  -5.6110000   3.3190000  -0.5570000  -2.9310000   3.5430000
  -1.1730000  -3.8540000   4.8950000  -2.7030000  -2.0610000   4.3850000
  -3.4820000  -3.6040000   4.1170000  -3.3350000  -3.3890000   1.7110000
  -4.0790000  -1.9550000   2.3750000  -1.3980000  -0.5620000   3.2500000
  -2.8000000   0.2000000   2.4560000  -1.1890000   0.2830000   1.7210000
  -0.0130000  -0.7460000   0.2650000  -1.7370000   0.9600000  -0.2700000
  -2.3950000  -0.0340000  -1.5520000  -0.3760000   2.8440000  -0.5200000
   0.7470000   5.5820000   4.3420000   1.3180000   3.2160000   4.6260000
   0.6740000   2.8180000   3.0250000   2.1070000   3.8470000   3.1700000
  -1.7310000   5.4080000   4.4000000  -1.6510000   3.7820000   3.7180000
  -0.9750000   4.1050000   5.3220000   0.3780000   7.6590000   2.7080000
