%VERSION  VERSION_STAMP = V0001.000  DATE = 07/11/26  14:26:25                  
%FLAG TITLE                                                                     
%FORMAT(20a4)                                                                   
MOL                                                                             
%FLAG POINTERS                                                                  
%FORMAT(10I8)                                                                   
      96      14      44      58     103      88     192     157       0       0
     549       1      58      88     157      34      69      42      21       0
       0       0       0       0       0       0       0       0      96       0
       0
%FLAG ATOM_NAME                                                                 
%FORMAT(20a4)                                                                   
C1  O1  C2  C3  C4  C5  C6  O2  C7  C8  C9  C10 O3  N1  C11 C12 O4  N2  S1  O5  
O6  C13 C14 C15 C16 C17 C18 C19 C20 C21 C22 C23 N3  C24 C25 O7  C26 C27 C28 C29 
C30 N4  C31 C32 C33 C34 C35 S2  N5  C36 C37 Cl1 H1  H2  H3  H4  H5  H6  H7  H8  
H9  H10 H11 H12 H13 H14 H15 H16 H17 H18 H19 H20 H21 H22 H23 H24 H25 H26 H27 H28 
H29 H30 H31 H32 H33 H34 H35 H36 H37 H38 H39 H40 H41 H42 H43 H44 
%FLAG CHARGE                                                                    
%FORMAT(5E16.8)                                                                 
  2.05365321E+00 -5.68353537E+00  2.66227803E+00 -3.57157080E+00 -9.47559600E-01
 -3.39481449E+00  3.31828083E+00 -5.95686987E+00  2.55294423E+00 -1.37396142E+00
 -2.47276611E+00  1.21014294E+01 -1.10263137E+01 -9.69244137E+00 -5.75824680E-01
  1.34863242E+01 -1.01698656E+01 -1.22690746E+01  2.72350496E+01 -1.20139624E+01
 -1.20139624E+01 -7.96132287E+00 -7.45292070E-01 -7.45292070E-01 -1.64729592E+00
 -1.41222825E+00 -3.02854626E+00 -2.62765566E+00 -1.15164936E+00 -1.24640532E+00
 -1.70196282E+00  1.51245090E+00 -8.36039124E+00  1.00769319E+00  1.20103179E+01
 -1.18463172E+01 -2.49098841E+00 -1.84774122E+00 -5.74549119E+00  8.07794559E+00
  5.23708902E+00 -1.13524929E+01  6.33407148E+00 -1.60356240E+00 -1.58716233E+00
 -1.58716233E+00 -5.38286742E+00  1.10609361E+00 -1.26462762E+01  8.37496908E+00
 -1.43773947E+00 -8.63737020E-01  8.75271736E-01  8.75271736E-01  8.75271736E-01
  2.66045580E+00  2.80623420E+00  1.30653891E+00  1.49787306E+00  1.49787306E+00
  1.88965251E+00  6.16824855E+00  6.07713705E+00  2.87365671E+00  1.67098491E+00
  1.67098491E+00  1.67098491E+00  1.67098491E+00  1.73476296E+00  1.73476296E+00
  1.76209641E+00  2.53289970E+00  2.33245440E+00  1.00587096E+00  1.00587096E+00
  7.78092210E-01  7.78092210E-01  8.87426010E-01  8.87426010E-01  1.15164936E+00
  1.15164936E+00  1.04535868E+00  1.04535868E+00  1.04535868E+00  1.74387411E+00
  1.36120581E+00  1.36120581E+00  3.11601330E+00  9.23870610E-01  7.17357284E-01
  7.17357284E-01  7.17357284E-01  7.17357284E-01  7.17357284E-01  7.17357284E-01
  3.31645860E+00
%FLAG ATOMIC_NUMBER                                                             
%FORMAT(10I8)                                                                   
       6       8       6       6       6       6       6       8       6       6
       6       6       8       7       6       6       8       7      16       8
       8       6       6       6       6       6       6       6       6       6
       6       6       7       6       6       8       6       6       6       6
       6       7       6       6       6       6       6      16       7       6
       6      17       1       1       1       1       1       1       1       1
       1       1       1       1       1       1       1       1       1       1
       1       1       1       1       1       1       1       1       1       1
       1       1       1       1       1       1       1       1       1       1
       1       1       1       1       1       1
%FLAG MASS                                                                      
%FORMAT(5E16.8)                                                                 
  1.20100000E+01  1.60000000E+01  1.20100000E+01  1.20100000E+01  1.20100000E+01
  1.20100000E+01  1.20100000E+01  1.60000000E+01  1.20100000E+01  1.20100000E+01
  1.20100000E+01  1.20100000E+01  1.60000000E+01  1.40100000E+01  1.20100000E+01
  1.20100000E+01  1.60000000E+01  1.40100000E+01  3.20600000E+01  1.60000000E+01
  1.60000000E+01  1.20100000E+01  1.20100000E+01  1.20100000E+01  1.20100000E+01
  1.20100000E+01  1.20100000E+01  1.20100000E+01  1.20100000E+01  1.20100000E+01
  1.20100000E+01  1.20100000E+01  1.40100000E+01  1.20100000E+01  1.20100000E+01
  1.60000000E+01  1.20100000E+01  1.20100000E+01  1.20100000E+01  1.20100000E+01
  1.20100000E+01  1.40100000E+01  1.20100000E+01  1.20100000E+01  1.20100000E+01
  1.20100000E+01  1.20100000E+01  3.20600000E+01  1.40100000E+01  1.20100000E+01
  1.20100000E+01  3.54500000E+01  1.00800000E+00  1.00800000E+00  1.00800000E+00
  1.00800000E+00  1.00800000E+00  1.00800000E+00  1.00800000E+00  1.00800000E+00
  1.00800000E+00  1.00800000E+00  1.00800000E+00  1.00800000E+00  1.00800000E+00
  1.00800000E+00  1.00800000E+00  1.00800000E+00  1.00800000E+00  1.00800000E+00
  1.00800000E+00  1.00800000E+00  1.00800000E+00  1.00800000E+00  1.00800000E+00
  1.00800000E+00  1.00800000E+00  1.00800000E+00  1.00800000E+00  1.00800000E+00
  1.00800000E+00  1.00800000E+00  1.00800000E+00  1.00800000E+00  1.00800000E+00
  1.00800000E+00  1.00800000E+00  1.00800000E+00  1.00800000E+00  1.00800000E+00
  1.00800000E+00  1.00800000E+00  1.00800000E+00  1.00800000E+00  1.00800000E+00
  1.00800000E+00
%FLAG ATOM_TYPE_INDEX                                                           
%FORMAT(10I8)                                                                   
       1       2       3       3       3       3       3       2       1       1
       1       3       4       5       1       3       4       5       6       4
       4       1       1       1       1       1       3       3       1       1
       1       1       7       1       3       4       1       1       3       3
       3       8       3       1       1       1       3       6       8       3
       3       9      10      10      10      11      11      10      12      12
      12      13      13      10      12      12      12      12      12      12
      12      11      11      12      12      12      12      12      12      10
      10      10      10      10      12      12      12      11      12      12
      12      12      12      12      12      14
%FLAG NUMBER_EXCLUDED_ATOMS                                                     
%FORMAT(10I8)                                                                   
       7      10      12       8       9      12      13      14      14      14
      17      14       5      13      14      14       5      10      11       6
       5       8       6       5       8       9      10      10      11      12
      12      14      13       8      12       3       8       7       7       9
       9       9      13      12       9       8       3       2       4       3
       2       1       2       1       1       1       1       4       2       1
       1       1       1       4       3       2       1       1       2       1
       1       1       2       3       2       3       2       3       2       1
       1       2       1       1       2       1       1       1       6       2
       1       1       2       1       1       1
%FLAG NONBONDED_PARM_INDEX                                                      
%FORMAT(10I8)                                                                   
       1       2       4       7      11      16      22      29      37      46
      56      67      79      92       2       3       5       8      12      17
      23      30      38      47      57      68      80      93       4       5
       6       9      13      18      24      31      39      48      58      69
      81      94       7       8       9      10      14      19      25      32
      40      49      59      70      82      95      11      12      13      14
      15      20      26      33      41      50      60      71      83      96
      16      17      18      19      20      21      27      34      42      51
      61      72      84      97      22      23      24      25      26      27
      28      35      43      52      62      73      85      98      29      30
      31      32      33      34      35      36      44      53      63      74
      86      99      37      38      39      40      41      42      43      44
      45      54      64      75      87     100      46      47      48      49
      50      51      52      53      54      55      65      76      88     101
      56      57      58      59      60      61      62      63      64      65
      66      77      89     102      67      68      69      70      71      72
      73      74      75      76      77      78      90     103      79      80
      81      82      83      84      85      86      87      88      89      90
      91     104      92      93      94      95      96      97      98      99
     100     101     102     103     104     105
%FLAG RESIDUE_LABEL                                                             
%FORMAT(20a4)                                                                   
MOL 
%FLAG RESIDUE_POINTER                                                           
%FORMAT(10I8)                                                                   
       1
%FLAG BOND_FORCE_CONSTANT                                                       
%FORMAT(5E16.8)                                                                 
  2.84800000E+02  3.75900000E+02  3.57500000E+02  3.78600000E+02  3.95700000E+02
  2.32500000E+02  3.75900000E+02  2.43200000E+02  6.52600000E+02  3.56200000E+02
  2.91200000E+02  5.27300000E+02  2.61300000E+02  2.56900000E+02  2.83300000E+02
  6.83000000E+02  1.78000000E+02  3.90200000E+02  3.93900000E+02  2.78000000E+02
  4.81800000E+02  3.92200000E+02  2.55600000E+02  2.63800000E+02  3.56200000E+02
  3.08200000E+02  4.14200000E+02  4.50700000E+02  2.32000000E+02  3.69100000E+02
  2.62600000E+02  4.16100000E+02  4.03900000E+02  1.82000000E+02
%FLAG BOND_EQUIL_VALUE                                                          
%FORMAT(5E16.8)                                                                 
  1.43200000E+00  1.09700000E+00  1.37000000E+00  1.39800000E+00  1.08600000E+00
  1.53800000E+00  1.09700000E+00  1.52400000E+00  1.21800000E+00  1.37900000E+00
  1.43400000E+00  1.01300000E+00  1.50300000E+00  1.50800000E+00  1.71900000E+00
  1.45300000E+00  1.84900000E+00  1.08900000E+00  1.08700000E+00  1.48500000E+00
  1.33400000E+00  1.08800000E+00  1.51000000E+00  1.46200000E+00  1.37900000E+00
  1.45600000E+00  1.33900000E+00  1.31700000E+00  1.75600000E+00  1.36900000E+00
  1.50200000E+00  1.37300000E+00  1.08200000E+00  1.75000000E+00
%FLAG ANGLE_FORCE_CONSTANT                                                      
%FORMAT(5E16.8)                                                                 
  6.61000000E+01  6.24000000E+01  8.73000000E+01  6.88000000E+01  4.87000000E+01
  7.21000000E+01  8.68000000E+01  8.53000000E+01  6.49000000E+01  4.68000000E+01
  4.69000000E+01  6.53000000E+01  8.46000000E+01  8.43000000E+01  4.74000000E+01
  6.56000000E+01  4.87000000E+01  1.13800000E+02  8.28000000E+01  8.21000000E+01
  4.68000000E+01  8.56000000E+01  8.52000000E+01  9.02000000E+01  4.61000000E+01
  6.42000000E+01  6.44000000E+01  6.22000000E+01  1.22700000E+02  9.08000000E+01
  4.32000000E+01  6.11000000E+01  4.30510000E+01  1.28200000E+02  9.24000000E+01
  4.59000000E+01  6.65000000E+01  4.70000000E+01  4.72000000E+01  6.61000000E+01
  5.04000000E+01  6.55000000E+01  4.75000000E+01  4.64000000E+01  8.32000000E+01
  6.49000000E+01  6.53000000E+01  6.15000000E+01  1.13800000E+02  8.43000000E+01
  6.71000000E+01  8.53000000E+01  6.34000000E+01  7.04000000E+01  8.67000000E+01
  7.39000000E+01  7.80000000E+01  8.33000000E+01  8.32000000E+01  9.11000000E+01
  6.55000000E+01  4.77000000E+01  6.69000000E+01  4.78000000E+01  6.68000000E+01
  4.25000000E+01  3.88000000E+01  3.90000000E+01  3.81000000E+01
%FLAG ANGLE_EQUIL_VALUE                                                         
%FORMAT(5E16.8)                                                                 
  2.05879127E+00  1.91602327E+00  2.08043336E+00  2.09474507E+00  2.09230160E+00
  2.08374949E+00  2.14570870E+00  1.88443280E+00  1.94621748E+00  1.91637234E+00
  1.91218355E+00  1.93801443E+00  2.15024656E+00  2.01027109E+00  1.89839544E+00
  2.13192060E+00  2.05163542E+00  2.14762857E+00  2.05233355E+00  2.07729177E+00
  2.06716885E+00  2.14186898E+00  1.99962458E+00  1.04719800E+00  2.05407888E+00
  2.09823573E+00  2.05914033E+00  2.17747371E+00  1.86785217E+00  1.80536935E+00
  1.96454345E+00  2.06681979E+00  1.91707047E+00  2.09526867E+00  1.88286200E+00
  2.07153218E+00  2.17834637E+00  2.02859706E+00  2.01009656E+00  2.15775148E+00
  2.10190092E+00  1.94709015E+00  1.92614619E+00  2.01899774E+00  1.94796281E+00
  2.01829961E+00  2.10643878E+00  1.90031530E+00  2.14762857E+00  2.01027109E+00
  2.10818411E+00  2.15094469E+00  2.10835864E+00  2.04587583E+00  2.05512607E+00
  1.84114862E+00  1.57498579E+00  1.99857738E+00  2.11097664E+00  1.94866095E+00
  1.95354787E+00  1.92841512E+00  1.94691562E+00  2.24239998E+00  2.08479669E+00
  2.09387240E+00  1.89298492E+00  1.87762601E+00  1.99718112E+00
%FLAG DIHEDRAL_FORCE_CONSTANT                                                   
%FORMAT(5E16.8)                                                                 
  1.61000000E+00  3.62500000E+00  3.83333333E-01  4.80000000E+00  1.55555556E-01
  2.50000000E-01  0.00000000E+00  1.00000000E-01  1.10000000E-01  2.90000000E-01
  1.30000000E-01  8.00000000E-02  7.40000000E-01  2.70000000E-01  5.50000000E-01
  7.10000000E-01  0.00000000E+00  2.50000000E+00  0.00000000E+00  8.30000000E-01
  4.00000000E-02  2.00000000E+00  0.00000000E+00  8.20000000E-02  1.10000000E+00
  1.44444444E-01  6.65000000E+00  1.47000000E+00  3.60000000E-01  1.02000000E+00
  1.70000000E-01  1.00000000E-01  5.00000000E-01  2.60000000E-01  7.00000000E-01
  4.75000000E+00  1.10000000E+00  4.00000000E+00  1.57000000E-01  1.20000000E-01
  1.10000000E+00  1.05000000E+01
%FLAG DIHEDRAL_PERIODICITY                                                      
%FORMAT(5E16.8)                                                                 
  2.00000000E+00  2.00000000E+00  3.00000000E+00  2.00000000E+00  3.00000000E+00
  1.00000000E+00  3.00000000E+00  3.00000000E+00  1.00000000E+00  2.00000000E+00
  3.00000000E+00  3.00000000E+00  1.00000000E+00  2.00000000E+00  3.00000000E+00
  2.00000000E+00  4.00000000E+00  2.00000000E+00  2.00000000E+00  1.00000000E+00
  3.00000000E+00  1.00000000E+00  2.00000000E+00  3.00000000E+00  2.00000000E+00
  3.00000000E+00  2.00000000E+00  1.00000000E+00  3.00000000E+00  1.00000000E+00
  3.00000000E+00  4.00000000E+00  1.00000000E+00  2.00000000E+00  2.00000000E+00
  2.00000000E+00  2.00000000E+00  2.00000000E+00  3.00000000E+00  3.00000000E+00
  2.00000000E+00  2.00000000E+00
%FLAG DIHEDRAL_PHASE                                                            
%FORMAT(5E16.8)                                                                 
  3.14159400E+00  3.14159400E+00  0.00000000E+00  3.14159400E+00  0.00000000E+00
  0.00000000E+00  0.00000000E+00  0.00000000E+00  0.00000000E+00  3.14159400E+00
  0.00000000E+00  0.00000000E+00  0.00000000E+00  3.14159400E+00  3.14159400E+00
  3.14159400E+00  3.14159400E+00  3.14159400E+00  0.00000000E+00  0.00000000E+00
  3.14159400E+00  0.00000000E+00  3.14159400E+00  0.00000000E+00  3.14159400E+00
  0.00000000E+00  3.14159400E+00  0.00000000E+00  3.14159400E+00  3.14159400E+00
  0.00000000E+00  3.14159400E+00  0.00000000E+00  3.14159400E+00  3.14159400E+00
  3.14159400E+00  3.14159400E+00  3.14159400E+00  3.14159400E+00  0.00000000E+00
  3.14159400E+00  3.14159400E+00
%FLAG SCEE_SCALE_FACTOR                                                         
%FORMAT(5E16.8)                                                                 
  1.20000000E+00  1.20000000E+00  1.20000000E+00  1.20000000E+00  1.20000000E+00
  1.20000000E+00  1.20000000E+00  1.20000000E+00  1.20000000E+00  1.20000000E+00
  1.20000000E+00  1.20000000E+00  1.20000000E+00  1.20000000E+00  1.20000000E+00
  1.20000000E+00  1.20000000E+00  1.20000000E+00  1.20000000E+00  1.20000000E+00
  1.20000000E+00  1.20000000E+00  1.20000000E+00  1.20000000E+00  1.20000000E+00
  1.20000000E+00  1.20000000E+00  1.20000000E+00  1.20000000E+00  1.20000000E+00
  1.20000000E+00  1.20000000E+00  1.20000000E+00  1.20000000E+00  1.20000000E+00
  1.20000000E+00  1.20000000E+00  1.20000000E+00  1.20000000E+00  1.20000000E+00
  0.00000000E+00  0.00000000E+00
%FLAG SCNB_SCALE_FACTOR                                                         
%FORMAT(5E16.8)                                                                 
  2.00000000E+00  2.00000000E+00  2.00000000E+00  2.00000000E+00  2.00000000E+00
  2.00000000E+00  2.00000000E+00  2.00000000E+00  2.00000000E+00  2.00000000E+00
  2.00000000E+00  2.00000000E+00  2.00000000E+00  2.00000000E+00  2.00000000E+00
  2.00000000E+00  2.00000000E+00  2.00000000E+00  2.00000000E+00  2.00000000E+00
  2.00000000E+00  2.00000000E+00  2.00000000E+00  2.00000000E+00  2.00000000E+00
  2.00000000E+00  2.00000000E+00  2.00000000E+00  2.00000000E+00  2.00000000E+00
  2.00000000E+00  2.00000000E+00  2.00000000E+00  2.00000000E+00  2.00000000E+00
  2.00000000E+00  2.00000000E+00  2.00000000E+00  2.00000000E+00  2.00000000E+00
  0.00000000E+00  0.00000000E+00
%FLAG SOLTY                                                                     
%FORMAT(5E16.8)                                                                 
  0.00000000E+00  0.00000000E+00  0.00000000E+00  0.00000000E+00  0.00000000E+00
  0.00000000E+00  0.00000000E+00  0.00000000E+00  0.00000000E+00  0.00000000E+00
  0.00000000E+00  0.00000000E+00  0.00000000E+00  0.00000000E+00  0.00000000E+00
  0.00000000E+00  0.00000000E+00  0.00000000E+00  0.00000000E+00  0.00000000E+00
  0.00000000E+00
%FLAG LENNARD_JONES_ACOEF                                                       
%FORMAT(5E16.8)                                                                 
  1.02073671E+06  5.42502534E+05  2.83662575E+05  8.43969952E+05  4.46121722E+05
  6.96551276E+05  6.30925504E+05  3.27367585E+05  5.17507491E+05  3.76435470E+05
  8.48258258E+05  4.47026838E+05  6.99381362E+05  5.17814271E+05  7.01825028E+05
  2.09089895E+06  1.12086734E+06  1.73376823E+06  1.30884564E+06  1.74537186E+06
  4.26366419E+06  8.52084164E+05  4.46307018E+05  7.01106848E+05  5.15491878E+05
  7.02755693E+05  1.75889445E+06  7.02078680E+05  9.31115275E+05  4.94433451E+05
  7.69642101E+05  5.74782316E+05  7.73425391E+05  1.90820499E+06  7.76656876E+05
  8.49322032E+05  1.80018612E+06  9.60982218E+05  1.49062160E+06  1.11993097E+06
  1.49942414E+06  3.67899711E+06  1.50866868E+06  1.64251971E+06  3.17107030E+06
  6.97998263E+04  3.44374471E+04  5.63013422E+04  3.86646725E+04  5.58085097E+04
  1.48672098E+05  5.45183252E+04  6.34160397E+04  1.25585106E+05  3.39005767E+03
  9.27554496E+04  4.65732396E+04  7.52549148E+04  5.27277400E+04  7.48403283E+04
  1.95762765E+05  7.35931098E+04  8.43518904E+04  1.66104821E+05  4.88692384E+03
  6.90855956E+03  1.00235148E+05  5.02224902E+04  8.12662403E+04  5.68021765E+04
  8.07866982E+04  2.11783234E+05  7.93773615E+04  9.11435380E+04  1.79601155E+05
  5.22955465E+03  7.41026906E+03  7.94617769E+03  2.23577481E+03  9.46795083E+02
  1.71458823E+03  9.87857350E+02  1.65195713E+03  5.15374979E+03  1.52360475E+03
  2.01475241E+03  4.18912581E+03  5.24570081E+01  9.04434904E+01  9.47421632E+01
  1.34728399E-01  7.75673747E+04  3.86549715E+04  6.27751680E+04  4.36069364E+04
  6.23418310E+04  1.64354276E+05  6.11299385E+04  7.05112106E+04  1.39186903E+05
  3.94664935E+03  5.62610481E+03  6.02863188E+03  6.76796831E+01  4.56536476E+03
%FLAG LENNARD_JONES_BCOEF                                                       
%FORMAT(5E16.8)                                                                 
  6.63431737E+02  4.38146883E+02  2.87011518E+02  5.90251928E+02  3.88758656E+02
  5.24668528E+02  5.62969425E+02  3.67361018E+02  4.98871431E+02  4.69350655E+02
  6.17825399E+02  4.06301077E+02  5.48900066E+02  5.21008860E+02  5.74088001E+02
  1.20800124E+03  8.01230425E+02  1.07629402E+03  1.03157656E+03  1.12747567E+03
  2.19459223E+03  6.72777963E+02  4.41089616E+02  5.97113873E+02  5.64804067E+02
  6.24158704E+02  1.22973599E+03  6.77820248E+02  6.12468585E+02  4.04310927E+02
  5.44830041E+02  5.19385932E+02  5.70234696E+02  1.11546536E+03  6.20851625E+02
  5.65406768E+02  1.10195051E+03  7.29357620E+02  9.81118883E+02  9.38113535E+02
  1.02737257E+03  2.00414708E+03  1.11967364E+03  1.01742263E+03  1.82923847E+03
  1.14981426E+02  7.31636661E+01  1.01040256E+02  9.23664132E+01  1.05029928E+02
  2.13489607E+02  1.12788003E+02  1.05935811E+02  1.92900608E+02  1.67944276E+01
  1.24325688E+02  7.98066064E+01  1.09570372E+02  1.01173582E+02  1.14083104E+02
  2.29782888E+02  1.22913863E+02  1.14599119E+02  2.08087638E+02  1.89134207E+01
  2.10929191E+01  1.37787728E+02  8.83545880E+01  1.21392023E+02  1.11953944E+02
  1.26366740E+02  2.54804909E+02  1.36094315E+02  1.27000718E+02  2.30684859E+02
  2.08590256E+01  2.32899892E+01  2.57122925E+01  1.71355763E+01  1.01016461E+01
  1.46824710E+01  1.22938581E+01  1.50468782E+01  3.30984635E+01  1.57004457E+01
  1.57231024E+01  2.93366416E+01  1.73959275E+00  2.14252117E+00  2.33785449E+00
  7.34107347E-02  1.13692208E+02  7.27065100E+01  1.00073628E+02  9.20079458E+01
  1.04122183E+02  2.10544132E+02  1.12023534E+02  1.04776275E+02  1.90482178E+02
  1.69967767E+01  1.90347353E+01  2.10068861E+01  1.85338491E+00  1.71467049E+01
%FLAG BONDS_INC_HYDROGEN                                                        
%FORMAT(10I8)                                                                   
       0     156       2       0     159       2       0     162       2       9
     165       5      12     168       5      24     171       2      27     174
       7      27     177       7      30     180       7      39     183      12
      51     186      12      63     189      18      66     192      19      66
     195      19      69     198      19      69     201      19      72     204
      19      72     207      19      75     210      19      78     213      22
      81     216      22      84     219       7      84     222       7      87
     225       7      87     228       7      90     231       7      90     234
       7      93     237       2      93     240       2      99     243       2
      99     246       2      99     249       2     108     252       7     111
     255       7     111     258       7     114     261       5     129     264
       7     132     267       7     132     270       7     132     273       7
     135     276       7     135     279       7     135     282       7     138
     285      33
%FLAG BONDS_WITHOUT_HYDROGEN                                                    
%FORMAT(10I8)                                                                   
       0       3       1       3       6       3       6       9       4       6
     150       4       9      12       4      12      15       4      15      18
       4      15     147       4      18      21       3      18     114       4
      21      24       1      24      27       6      24     111       6      27
      30       6      30      33       8      30     108       6      33      36
       9      33      39      10      39      42      11      42      45      13
      42      72      14      42      75      14      45      48       9      45
      51      10      51      54      15      54      57      16      54      60
      16      54      63      17      63      66      14      63      69      14
      66      69      14      72      75      14      75      78      20      78
      81      21      81      84      23      84      87       6      87      90
       6      90      93       6      93      96      24      96      99      24
      96     102      25     102     105       9     102     108       8     108
     111       6     114     117       4     117     120      26     117     144
      27     120     123      28     120     141      29     123     126      30
     126     129      31     126     138      32     129     132       6     129
     135       6     138     141      29     144     147      27     147     150
       4     150     153      34
%FLAG ANGLES_INC_HYDROGEN                                                       
%FORMAT(10I8)                                                                   
       3       0     156       2       3       0     159       2       3       0
     162       2       6       9     165       5       9      12     168       5
      12       9     165       5      15      12     168       5      18     114
     261       5      21      24     171       2      24      27     174      10
      24      27     177      10      24     111     255      10      24     111
     258      10      27      24     171      11      27      30     180      10
      30      27     174      10      30      27     177      10      30     108
     252      10      33      30     180      15      33      39     183      17
      42      39     183      21      42      72     204      25      42      72
     207      25      42      75     210      25      45      51     186      17
      54      51     186      31      54      63     189      33      63      66
     192      25      63      66     195      25      63      69     198      25
      63      69     201      25      66      63     189      36      66      69
     198      25      66      69     201      25      69      66     192      25
      69      66     195      25      69      63     189      36      72      75
     210      25      75      72     204      25      75      72     207      25
      75      78     213      38      78      75     210      39      78      81
     216      41      81      78     213      41      81      84     219      43
      81      84     222      43      84      81     216      44      84      87
     225      10      84      87     228      10      87      84     219      10
      87      84     222      10      87      90     231      10      87      90
     234      10      90      87     225      10      90      87     228      10
      90      93     237      11      90      93     240      11      93      90
     231      10      93      90     234      10      96      93     237      48
      96      93     240      48      96      99     243      48      96      99
     246      48      96      99     249      48     102     108     252      15
     108     111     255      10     108     111     258      10     108      30
     180      10     111     108     252      10     111      24     171      11
     117     114     261       5     126     129     264      62     126     138
     285      64     129     132     267      10     129     132     270      10
     129     132     273      10     129     135     276      10     129     135
     279      10     129     135     282      10     132     129     264      10
     135     129     264      10     141     138     285      66     156       0
     159      67     156       0     162      67     159       0     162      67
     174      27     177      68     192      66     195      69     198      69
     201      69     204      72     207      69     219      84     222      68
     225      87     228      68     231      90     234      68     237      93
     240      67     243      99     246      67     243      99     249      67
     246      99     249      67     255     111     258      68     267     132
     270      68     267     132     273      68     270     132     273      68
     276     135     279      68     276     135     282      68     279     135
     282      68
%FLAG ANGLES_WITHOUT_HYDROGEN                                                   
%FORMAT(10I8)                                                                   
       0       3       6       1       3       6       9       3       3       6
     150       3       6       9      12       4       6     150     147       4
       6     150     153       6       9       6     150       4       9      12
      15       4      12      15      18       4      12      15     147       4
      15      18      21       3      15      18     114       4      15     147
     144       7      15     147     150       4      18      15     147       4
      18      21      24       1      18     114     117       4      21      18
     114       3      21      24      27       8      21      24     111       8
      24      27      30       9      24     111     108       9      27      24
     111       9      27      30      33      12      27      30     108       9
      30      33      36      13      30      33      39      14      30     108
     102      12      30     108     111       9      33      30     108      12
      33      39      42      16      36      33      39      18      39      42
      45      19      39      42      72      20      39      42      75      20
      42      45      48      22      42      45      51      23      42      72
      75      24      42      75      72      24      42      75      78      26
      45      42      72      27      45      42      75      27      45      51
      54      28      48      45      51      18      51      54      57      29
      51      54      60      29      51      54      63      30      54      63
      66      32      54      63      69      32      57      54      60      34
      57      54      63      35      60      54      63      35      63      66
      69      24      63      69      66      24      66      63      69      24
      72      42      75      24      72      75      78      26      75      78
      81      37      78      81      84      40      81      84      87      42
      84      87      90       9      87      90      93       9      90      93
      96      45      93      96      99      46      93      96     102      47
      96     102     105      49      96     102     108      50      99      96
     102      47     102     108     111      12     105     102     108      13
     114     117     120      51     114     117     144       7     117     120
     123      52     117     120     141      53     117     144     147      54
     120     117     144      55     120     123     126      56     120     141
     138      57     123     120     141      58     123     126     129      59
     123     126     138      60     126     129     132      61     126     129
     135      61     126     138     141      63     129     126     138      65
     132     129     135       9     144     147     150       7     147     150
     153       6
%FLAG DIHEDRALS_INC_HYDROGEN                                                    
%FORMAT(10I8)                                                                   
       3       6       9     165       2     156       0       3       6       3
     159       0       3       6       3     162       0       3       6       3
       6       9      12     168       2      15      12       9     165       2
      15      18     114     261       2      18      15      12     168       2
      18      21      24     171       3      21      18     114     261       2
      21      24      27     174       6      21      24     -27     174       7
      21      24      27     177       6      21      24     -27     177       7
      21      24     111     255       6      21      24    -111     255       7
      21      24     111     258       6      21      24    -111     258       7
      24      27      30     180      12      24     111     108     252      12
      27      24     111     255      12      27      24     111     258      12
      27      30     108     252      12      30      27      24     171       5
      30      33      39     183      18      30     108     111     255      12
      30     108     111     258      12      33      30      27     174       5
      33      30      27     177       5      33      30     108     252       5
      36      33      30     180      20      36      33     -30     180      21
      36      33      39     183      22      36      33     -39     183      18
      39      33      30     180      23      39      42      72     204       5
      39      42      72     207       5      39      42      75     210       5
      42      45      51     186      18      42      72     -75     210       5
      42      75     -72     204       5      42      75     -72     207       5
      42      75      78     213      19      45      42      39     183      19
      45      42      72     204       5      45      42      72     207       5
      45      42      75     210       5      48      45      51     186      22
      48      45     -51     186      18      51      54      63     189      26
      54      63      66     192       5      54      63      66     195       5
      54      63      69     198       5      54      63      69     201       5
      57      54      51     186      25      57      54      63     189      26
      60      54      51     186      25      60      54      63     189      26
      63      54      51     186      25      63      66     -69     198       5
      63      66     -69     201       5      63      69     -66     192       5
      63      69     -66     195       5      66      63     -69     198       5
      66      63     -69     201       5      66      69     -63     189       5
      69      66     -63     189       5      69      63     -66     192       5
      69      63     -66     195       5      72      42      39     183      19
      72      42     -75     210       5      72      75      78     213      19
      75      78      81     216      27      75      42      39     183      19
      75      42     -72     204       5      75      42     -72     207       5
      78      75      72     204       5      78      75      72     207       5
      78      81      84     219      28      78      81     -84     219      29
      78      81      84     222      28      78      81     -84     222      29
      81      78      75     210      28      81      78     -75     210      29
      81      84      87     225       5      81      84      87     228       5
      84      81      78     213      27      84      87      90     231      12
      84      87      90     234      12      87      84      81     216      19
      87      90      93     237       5      87      90      93     240       5
      90      87      84     219      12      90      87      84     222      12
      93      90      87     225      12      93      90      87     228      12
      93      96      99     243      19      93      96      99     246      19
      93      96      99     249      19      96      93      90     231       5
      96      93      90     234       5      96     102     108     252      23
      99      96      93     237      19      99      96      93     240      19
     102      96      93     237      23     102      96      93     240      23
     102      96      99     243      23     102      96      99     246      23
     102      96      99     249      23     102     108     111     255       5
     102     108     111     258       5     102     108      30     180       5
     105     102     108     252      20     105     102    -108     252      23
     105     102    -108     252      21     108     111      24     171       5
     108      30      27     174      12     108      30      27     177      12
     111     108      30     180      12     111      24      27     174      12
     111      24      27     177      12     120     117     114     261       2
     120     141     138     285      37     123     126     129     264       7
     123     126     138     285      38     126     129     132     267       5
     126     129     132     270       5     126     129     132     273       5
     126     129     135     276       5     126     129     135     279       5
     126     129     135     282       5     129     126     138     285      38
     132     129     135     276      12     132     129     135     279      12
     132     129     135     282      12     135     129     132     267      12
     135     129     132     270      12     135     129     132     273      12
     138     126     129     264       7     144     117     114     261       2
     147      15      12     168       2     150       6       9     165       2
     165       9      12     168       2     171      24      27     174       5
     171      24      27     177       5     171      24     111     255       5
     171      24     111     258       5     174      27      30     180      40
     177      27      30     180      40     180      30     108     252      40
     189      63      66     192       5     189      63      66     195       5
     189      63      69     198       5     189      63      69     201       5
     192      66      69     198       5     192      66      69     201       5
     195      66      69     198       5     195      66      69     201       5
     204      72      75     210       5     207      72      75     210       5
     210      75      78     213      19     213      78      81     216      27
     216      81      84     219      19     216      81      84     222      19
     219      84      87     225      40     219      84      87     228      40
     222      84      87     225      40     222      84      87     228      40
     225      87      90     231      40     225      87      90     234      40
     228      87      90     231      40     228      87      90     234      40
     231      90      93     237       5     231      90      93     240       5
     234      90      93     237       5     234      90      93     240       5
     252     108     111     255      40     252     108     111     258      40
     264     129     132     267      40     264     129     132     270      40
     264     129     132     273      40     264     129     135     276      40
     264     129     135     279      40     264     129     135     282      40
       6      12      -9    -165      41       9      15     -12    -168      41
      33      42     -39    -183      41      45     186     -51     -54      41
      81      75     -78    -213      41      78      84     -81    -216      41
      18     117    -114    -261      41     126     285    -138    -141      41
%FLAG DIHEDRALS_WITHOUT_HYDROGEN                                                
%FORMAT(10I8)                                                                   
       0       3       6       9       1       0       3       6     150       1
       3       6       9      12       2       3       6     150     147       2
       3       6     150     153       2       6       9      12      15       2
       6     150     147     144       2       6     150    -147      15       2
       9       6     150     147       2       9       6     150     153       2
       9      12      15      18       2       9      12     -15     147       2
      12       9       6     150       2      12      15      18      21       2
      12      15      18     114       2      12      15     147     144       2
      12      15    -147     150       2      15      18      21      24       1
      15      18     114     117       2      15     147    -144     117       4
      15     147     150     153       2      18      15     147     144       2
      18      15     147     150       2      18      21      24      27       3
      18      21      24     111       3      18     114     117     120       2
      18     114    -117     144       2      21      18      15     147       2
      21      18     114     117       2      21      24      27      30       5
      21      24     111     108       5      24      21      18     114       1
      24      27      30      33       8      24      27     -30     108       9
      24      27     -30     108      10      24      27     -30     108      11
      24     111     108     102       8      24     111    -108      30       9
      24     111    -108      30      10      24     111    -108      30      11
      27      24    -111     108       9      27      24    -111     108      10
      27      24    -111     108      11      27      30      33      36      13
      27      30     -33      36      14      27      30     -33      36      15
      27      30      33      39      16      27      30     -33      39      17
      27      30     108     102       8      27      30    -108     111       9
      27      30    -108     111      10      27      30    -108     111      11
      30      27     -24     111       9      30      27     -24     111      10
      30      27     -24     111      11      30      33      39      42      18
      30     108     102      96      16      30     108    -102      96      17
      30     108     102     105      13      30     108    -102     105      14
      30     108    -102     105      15      33      30     108     102       5
      33      30     108     111       8      33      39      42      45      19
      33      39      42      72      19      33      39      42      75      19
      36      33      30     108      13      36      33     -30     108      14
      36      33     -30     108      15      36      33      39      42      18
      39      33      30     108      16      39      33     -30     108      17
      39      42      45      48      23      39      42      45      51      23
      39      42     -72      75       5      39      42     -75      72       5
      39      42      75      78       5      42      45      51      54      18
      42      72     -75      78       5      42      75      78      81      24
      45      42     -72      75       5      45      42     -75      72       5
      45      42      75      78       5      45      51      54      57      25
      45      51      54      60      25      45      51      54      63      25
      48      45      42      72      23      48      45      42      75      23
      48      45      51      54      18      51      45      42      72      23
      51      45      42      75      23      51      54      63      66      26
      51      54      63      69      26      54      63     -66      69       5
      54      63     -69      66       5      57      54      63      66      26
      57      54      63      69      26      60      54      63      66      26
      60      54      63      69      26      72      42     -75      78       5
      72      75      78      81      24      75      78      81      84      27
      78      81      84      87      19      81      84      87      90       5
      84      87      90      93       9      84      87     -90      93      10
      84      87     -90      93      11      87      90      93      96       8
      90      93      96      99      19      90      93      96     102      30
      90      93     -96     102      31      90      93     -96     102      32
      93      96     102     105      18      93      96     102     108      33
      93      96    -102     108      34      96     102     108     111      16
      96     102    -108     111      17      99      96     102     105      18
      99      96     102     108      33      99      96    -102     108      34
     105     102     108     111      13     105     102    -108     111      14
     105     102    -108     111      15     114      18      15     147       2
     114     117     120     123      35     114     117     120     141      35
     114     117    -144     147       4     117     120     123     126      36
     117     120     141     138      37     117     144     147     150       4
     120     117     144     147       4     120     123     126     129      36
     120     123    -126     138      36     120     141    -138     126      37
     123     120     117     144      35     123     120    -141     138      37
     123     126     129     132       7     123     126     129     135       7
     123     126    -138     141      38     126     123    -120     141      36
     129     126     138     141      38     132     129     126     138      39
     135     129     126     138      39     141     120     117     144      35
     144     147     150     153       2       9     150      -6      -3      41
      12      18     -15    -147      41      15     114     -18     -21      41
      30      39     -33     -36      42      42      51     -45     -48      42
     102      93     -96     -99      41     108      96    -102    -105      42
     114     120    -117    -144      41     117     123    -120    -141      41
     129     138    -126    -123      41      15     150    -147    -144      41
       6     147    -150    -153      41
%FLAG EXCLUDED_ATOMS_LIST                                                       
%FORMAT(10I8)                                                                   
       2       3       4      51      53      54      55       3       4       5
      50      51      52      53      54      55      56       4       5       6
      49      50      51      52      53      54      55      56      57       5
       6       7      50      51      52      56      57       6       7       8
      39      49      50      51      56      57       7       8       9      39
      40      49      50      51      52      56      57      88       8       9
      10      38      39      40      41      49      50      51      57      58
      88       9      10      11      37      38      39      40      50      58
      59      60      86      87      88      10      11      12      35      37
      38      39      58      59      60      61      85      86      87      11
      12      13      14      35      37      38      58      59      60      61
      85      86      87      12      13      14      15      33      35      36
      37      38      58      59      60      61      62      85      86      87
      13      14      15      16      25      26      35      37      38      59
      60      61      62      85      14      15      37      61      62      15
      16      17      18      25      26      27      37      61      62      69
      70      71      16      17      18      19      25      26      27      28
      62      63      69      70      71      72      17      18      19      20
      21      22      25      26      27      62      63      69      70      71
      18      19      25      26      63      19      20      21      22      23
      24      25      26      63      64      20      21      22      23      24
      63      64      65      66      67      68      21      22      23      24
      63      64      22      23      24      63      64      23      24      63
      64      65      66      67      68      24      64      65      66      67
      68      64      65      66      67      68      26      27      28      62
      69      70      71      72      27      28      29      62      69      70
      71      72      73      28      29      30      69      70      71      72
      73      74      75      29      30      31      71      72      73      74
      75      76      77      30      31      32      72      73      74      75
      76      77      78      79      31      32      33      73      74      75
      76      77      78      79      80      81      32      33      34      35
      74      75      76      77      78      79      80      81      33      34
      35      36      37      76      77      78      79      80      81      82
      83      84      34      35      36      37      38      78      79      80
      81      82      83      84      85      35      36      37      80      81
      82      83      84      36      37      38      61      80      81      82
      83      84      85      86      87      37      38      85      38      58
      59      60      61      85      86      87      58      59      60      61
      85      86      87      40      41      42      48      49      50      88
      41      42      43      47      48      49      50      51      88      42
      43      44      47      48      49      50      88      96      43      44
      45      46      47      48      49      89      96      44      45      46
      47      48      89      90      91      92      93      94      95      96
      45      46      47      48      89      90      91      92      93      94
      95      96      46      47      89      90      91      92      93      94
      95      47      89      90      91      92      93      94      95      48
      89      96      49      96      50      51      52      88      51      52
      57      52      56       0      54      55      55       0      57       0
      59      60      86      87      60      61      61      85       0       0
      65      66      67      68      66      67      68      67      68      68
       0      70      71      71      72      73      74      75      75      76
      77      76      77      77      78      79      78      79      79      80
      81      80      81      81       0      83      84      84       0      86
      87      87       0       0      90      91      92      93      94      95
      91      92      92       0      94      95      95       0       0
%FLAG HBOND_ACOEF                                                               
%FORMAT(5E16.8)                                                                 

%FLAG HBOND_BCOEF                                                               
%FORMAT(5E16.8)                                                                 

%FLAG HBCUT                                                                     
%FORMAT(5E16.8)                                                                 

%FLAG AMBER_ATOM_TYPE                                                           
%FORMAT(20a4)                                                                   
c3  os  ca  ca  ca  ca  ca  os  c3  c3  c3  c   o   ns  cx  c   o   ns  s6  o   
o   cx  cx  cx  cx  cx  c2  c2  c3  c3  c3  c3  n   c3  c   o   c3  c3  ca  ca  
cc  nd  cd  c3  c3  c3  cc  ss  nb  ca  ca  cl  h1  h1  h1  ha  ha  h1  hc  hc  
hc  hn  hn  h1  hc  hc  hc  hc  hc  hc  hc  ha  ha  hc  hc  hc  hc  hc  hc  h1  
h1  h1  h1  h1  hc  hc  hc  ha  hc  hc  hc  hc  hc  hc  hc  h4  
%FLAG TREE_CHAIN_CLASSIFICATION                                                 
%FORMAT(20a4)                                                                   
BLA BLA BLA BLA BLA BLA BLA BLA BLA BLA BLA BLA BLA BLA BLA BLA BLA BLA BLA BLA 
BLA BLA BLA BLA BLA BLA BLA BLA BLA BLA BLA BLA BLA BLA BLA BLA BLA BLA BLA BLA 
BLA BLA BLA BLA BLA BLA BLA BLA BLA BLA BLA BLA BLA BLA BLA BLA BLA BLA BLA BLA 
BLA BLA BLA BLA BLA BLA BLA BLA BLA BLA BLA BLA BLA BLA BLA BLA BLA BLA BLA BLA 
BLA BLA BLA BLA BLA BLA BLA BLA BLA BLA BLA BLA BLA BLA BLA BLA 
%FLAG JOIN_ARRAY                                                                
%FORMAT(10I8)                                                                   
       0       0       0       0       0       0       0       0       0       0
       0       0       0       0       0       0       0       0       0       0
       0       0       0       0       0       0       0       0       0       0
       0       0       0       0       0       0       0       0       0       0
       0       0       0       0       0       0       0       0       0       0
       0       0       0       0       0       0       0       0       0       0
       0       0       0       0       0       0       0       0       0       0
       0       0       0       0       0       0       0       0       0       0
       0       0       0       0       0       0       0       0       0       0
       0       0       0       0       0       0
%FLAG IROTAT                                                                    
%FORMAT(10I8)                                                                   
       0       0       0       0       0       0       0       0       0       0
       0       0       0       0       0       0       0       0       0       0
       0       0       0       0       0       0       0       0       0       0
       0       0       0       0       0       0       0       0       0       0
       0       0       0       0       0       0       0       0       0       0
       0       0       0       0       0       0       0       0       0       0
       0       0       0       0       0       0       0       0       0       0
       0       0       0       0       0       0       0       0       0       0
       0       0       0       0       0       0       0       0       0       0
       0       0       0       0       0       0
%FLAG RADIUS_SET                                                                
%FORMAT(1a80)                                                                   
modified Bondi radii (mbondi)                                                   
%FLAG RADII                                                                     
%FORMAT(5E16.8)                                                                 
  1.70000000E+00  1.50000000E+00  1.70000000E+00  1.70000000E+00  1.70000000E+00
  1.70000000E+00  1.70000000E+00  1.50000000E+00  1.70000000E+00  1.70000000E+00
  1.70000000E+00  1.70000000E+00  1.50000000E+00  1.55000000E+00  1.70000000E+00
  1.70000000E+00  1.50000000E+00  1.55000000E+00  1.80000000E+00  1.50000000E+00
  1.50000000E+00  1.70000000E+00  1.70000000E+00  1.70000000E+00  1.70000000E+00
  1.70000000E+00  1.70000000E+00  1.70000000E+00  1.70000000E+00  1.70000000E+00
  1.70000000E+00  1.70000000E+00  1.55000000E+00  1.70000000E+00  1.70000000E+00
  1.50000000E+00  1.70000000E+00  1.70000000E+00  1.70000000E+00  1.70000000E+00
  1.70000000E+00  1.55000000E+00  1.70000000E+00  1.70000000E+00  1.70000000E+00
  1.70000000E+00  1.70000000E+00  1.80000000E+00  1.55000000E+00  1.70000000E+00
  1.70000000E+00  1.70000000E+00  1.30000000E+00  1.30000000E+00  1.30000000E+00
  1.30000000E+00  1.30000000E+00  1.30000000E+00  1.30000000E+00  1.30000000E+00
  1.30000000E+00  1.30000000E+00  1.30000000E+00  1.30000000E+00  1.30000000E+00
  1.30000000E+00  1.30000000E+00  1.30000000E+00  1.30000000E+00  1.30000000E+00
  1.30000000E+00  1.30000000E+00  1.30000000E+00  1.30000000E+00  1.30000000E+00
  1.30000000E+00  1.30000000E+00  1.30000000E+00  1.30000000E+00  1.30000000E+00
  1.30000000E+00  1.30000000E+00  1.30000000E+00  1.30000000E+00  1.30000000E+00
  1.30000000E+00  1.30000000E+00  1.30000000E+00  1.30000000E+00  1.30000000E+00
  1.30000000E+00  1.30000000E+00  1.30000000E+00  1.30000000E+00  1.30000000E+00
  1.30000000E+00
%FLAG SCREEN                                                                    
%FORMAT(5E16.8)                                                                 
  7.20000000E-01  8.50000000E-01  7.20000000E-01  7.20000000E-01  7.20000000E-01
  7.20000000E-01  7.20000000E-01  8.50000000E-01  7.20000000E-01  7.20000000E-01
  7.20000000E-01  7.20000000E-01  8.50000000E-01  7.90000000E-01  7.20000000E-01
  7.20000000E-01  8.50000000E-01  7.90000000E-01  9.60000000E-01  8.50000000E-01
  8.50000000E-01  7.20000000E-01  7.20000000E-01  7.20000000E-01  7.20000000E-01
  7.20000000E-01  7.20000000E-01  7.20000000E-01  7.20000000E-01  7.20000000E-01
  7.20000000E-01  7.20000000E-01  7.90000000E-01  7.20000000E-01  7.20000000E-01
  8.50000000E-01  7.20000000E-01  7.20000000E-01  7.20000000E-01  7.20000000E-01
  7.20000000E-01  7.90000000E-01  7.20000000E-01  7.20000000E-01  7.20000000E-01
  7.20000000E-01  7.20000000E-01  9.60000000E-01  7.90000000E-01  7.20000000E-01
  7.20000000E-01  8.00000000E-01  8.50000000E-01  8.50000000E-01  8.50000000E-01
  8.50000000E-01  8.50000000E-01  8.50000000E-01  8.50000000E-01  8.50000000E-01
  8.50000000E-01  8.50000000E-01  8.50000000E-01  8.50000000E-01  8.50000000E-01
  8.50000000E-01  8.50000000E-01  8.50000000E-01  8.50000000E-01  8.50000000E-01
  8.50000000E-01  8.50000000E-01  8.50000000E-01  8.50000000E-01  8.50000000E-01
  8.50000000E-01  8.50000000E-01  8.50000000E-01  8.50000000E-01  8.50000000E-01
  8.50000000E-01  8.50000000E-01  8.50000000E-01  8.50000000E-01  8.50000000E-01
  8.50000000E-01  8.50000000E-01  8.50000000E-01  8.50000000E-01  8.50000000E-01
  8.50000000E-01  8.50000000E-01  8.50000000E-01  8.50000000E-01  8.50000000E-01
  8.50000000E-01
%FLAG IPOL                                                                      
%FORMAT(1I8)                                                                    
       0
