%VERSION  VERSION_STAMP = V0001.000  DATE = 07/10/26  10:49:00                  
%FLAG TITLE                                                                     
%FORMAT(20a4)                                                                   
ACE                                                                             
%FLAG POINTERS                                                                  
%FORMAT(10I8)                                                                   
      89      10      44      46      98      61     196     157       0       0
     468       8      46      61     157      27      56      39      19       0
       0       0       0       0       0       0       0       0      24       0
       0
%FLAG ATOM_NAME                                                                 
%FORMAT(20a4)                                                                   
H1  CH3 H2  H3  C   O   N   H   CA  HA  CB  HB2 HB3 CG  CD1 HD1 NE1 HE1 CE2 CZ2 
HZ2 CH2 HH2 CZ3 HZ3 CE3 HE3 CD2 C   O   N   H   CA  HA  CB  HB1 HB2 HB3 C   O   
N   H   CA  HA2 HA3 C   O   N   H   CA  HA2 HA3 C   O   N   H   CA  HA  CB  HB2 
HB3 CG  HG2 HG3 CD  HD2 HD3 CE  HE2 HE3 NZ  HZ1 HZ2 HZ3 C   O   N   H   CA  HA  
CB  HB1 HB2 HB3 C   O   N   HN1 HN2 
%FLAG CHARGE                                                                    
%FORMAT(5E16.8)                                                                 
  2.04636429E+00 -6.67300626E+00  2.04636429E+00  2.04636429E+00  1.08823576E+01
 -1.03484442E+01 -7.57501011E+00  4.95464337E+00 -5.01113250E-01  2.04636429E+00
 -9.11115000E-02  6.17735970E-01  6.17735970E-01 -2.57845545E+00 -2.98481274E+00
  3.75743826E+00 -6.22838214E+00  6.21744876E+00  2.51467740E+00 -4.73962023E+00
  2.86454556E+00 -2.06640882E+00  2.58209991E+00 -3.59343756E+00  2.63676681E+00
 -4.34966301E+00  3.09779100E+00  2.26503189E+00  1.08841798E+01 -1.03484442E+01
 -7.57501011E+00  4.95464337E+00  6.14091510E-01  1.49969529E+00 -3.32556975E+00
  1.09880469E+00  1.09880469E+00  1.09880469E+00  1.08841798E+01 -1.03484442E+01
 -7.57501011E+00  4.95464337E+00 -4.59201960E-01  1.27191654E+00  1.27191654E+00
  1.08841798E+01 -1.03484442E+01 -7.57501011E+00  4.95464337E+00 -4.59201960E-01
  1.27191654E+00  1.27191654E+00  1.08841798E+01 -1.03484442E+01 -6.33953817E+00
  5.00566581E+00 -4.37335200E+00  2.59849998E+00 -1.71289620E-01  6.59647260E-01
  6.59647260E-01  3.40757010E-01  1.87689690E-01  1.87689690E-01 -8.72848170E-01
  1.13160483E+00  1.13160483E+00 -2.60578890E-01  2.06823105E+00  2.06823105E+00
 -7.02287442E+00  6.19558200E+00  6.19558200E+00  6.19558200E+00  1.33769904E+01
 -1.07402236E+01 -7.57501011E+00  4.95464337E+00  6.14091510E-01  1.49969529E+00
 -3.32556975E+00  1.09880469E+00  1.09880469E+00  1.09880469E+00  1.08841798E+01
 -1.03484442E+01 -8.43692490E+00  4.21846245E+00  4.21846245E+00
%FLAG ATOMIC_NUMBER                                                             
%FORMAT(10I8)                                                                   
       1       6       1       1       6       8       7       1       6       1
       6       1       1       6       6       1       7       1       6       6
       1       6       1       6       1       6       1       6       6       8
       7       1       6       1       6       1       1       1       6       8
       7       1       6       1       1       6       8       7       1       6
       1       1       6       8       7       1       6       1       6       1
       1       6       1       1       6       1       1       6       1       1
       7       1       1       1       6       8       7       1       6       1
       6       1       1       1       6       8       7       1       1
%FLAG MASS                                                                      
%FORMAT(5E16.8)                                                                 
  1.00800000E+00  1.20100000E+01  1.00800000E+00  1.00800000E+00  1.20100000E+01
  1.60000000E+01  1.40100000E+01  1.00800000E+00  1.20100000E+01  1.00800000E+00
  1.20100000E+01  1.00800000E+00  1.00800000E+00  1.20100000E+01  1.20100000E+01
  1.00800000E+00  1.40100000E+01  1.00800000E+00  1.20100000E+01  1.20100000E+01
  1.00800000E+00  1.20100000E+01  1.00800000E+00  1.20100000E+01  1.00800000E+00
  1.20100000E+01  1.00800000E+00  1.20100000E+01  1.20100000E+01  1.60000000E+01
  1.40100000E+01  1.00800000E+00  1.20100000E+01  1.00800000E+00  1.20100000E+01
  1.00800000E+00  1.00800000E+00  1.00800000E+00  1.20100000E+01  1.60000000E+01
  1.40100000E+01  1.00800000E+00  1.20100000E+01  1.00800000E+00  1.00800000E+00
  1.20100000E+01  1.60000000E+01  1.40100000E+01  1.00800000E+00  1.20100000E+01
  1.00800000E+00  1.00800000E+00  1.20100000E+01  1.60000000E+01  1.40100000E+01
  1.00800000E+00  1.20100000E+01  1.00800000E+00  1.20100000E+01  1.00800000E+00
  1.00800000E+00  1.20100000E+01  1.00800000E+00  1.00800000E+00  1.20100000E+01
  1.00800000E+00  1.00800000E+00  1.20100000E+01  1.00800000E+00  1.00800000E+00
  1.40100000E+01  1.00800000E+00  1.00800000E+00  1.00800000E+00  1.20100000E+01
  1.60000000E+01  1.40100000E+01  1.00800000E+00  1.20100000E+01  1.00800000E+00
  1.20100000E+01  1.00800000E+00  1.00800000E+00  1.00800000E+00  1.20100000E+01
  1.60000000E+01  1.40100000E+01  1.00800000E+00  1.00800000E+00
%FLAG ATOM_TYPE_INDEX                                                           
%FORMAT(10I8)                                                                   
       1       2       1       1       3       4       5       6       2       7
       2       1       1       3       3       8       5       6       3       3
       9       3       9       3       9       3       9       3       3       4
       5       6       2       7       2       1       1       1       3       4
       5       6       2       7       7       3       4       5       6       2
       7       7       3       4       5       6       2       7       2       1
       1       2       1       1       2       1       1       2      10      10
       5       6       6       6       3       4       5       6       2       7
       2       1       1       1       3       4       5       6       6
%FLAG NUMBER_EXCLUDED_ATOMS                                                     
%FORMAT(10I8)                                                                   
       6       7       4       3       7       3      10       4      12       7
      12       5       4      11       7       4       7       3       8       7
       4       6       3       4       3       2       1       1       7       3
      10       4      10       7       6       3       2       1       7       3
       7       4       7       4       3       7       3       7       4       7
       4       3       7       3      10       4      13       7      12       6
       5      10       5       4       9       5       4       6       5       4
       3       2       1       1       7       3      10       4      10       7
       6       3       2       1       4       3       2       1       1
%FLAG NONBONDED_PARM_INDEX                                                      
%FORMAT(10I8)                                                                   
       1       2       4       7      11      16      22      29      37      46
       2       3       5       8      12      17      23      30      38      47
       4       5       6       9      13      18      24      31      39      48
       7       8       9      10      14      19      25      32      40      49
      11      12      13      14      15      20      26      33      41      50
      16      17      18      19      20      21      27      34      42      51
      22      23      24      25      26      27      28      35      43      52
      29      30      31      32      33      34      35      36      44      53
      37      38      39      40      41      42      43      44      45      54
      46      47      48      49      50      51      52      53      54      55
%FLAG RESIDUE_LABEL                                                             
%FORMAT(20a4)                                                                   
ACE TRP ALA GLY GLY LYS ALA NHE 
%FLAG RESIDUE_POINTER                                                           
%FORMAT(10I8)                                                                   
       1       7      31      41      48      55      77      87
%FLAG BOND_FORCE_CONSTANT                                                       
%FORMAT(5E16.8)                                                                 
  5.70000000E+02  4.90000000E+02  3.40000000E+02  3.17000000E+02  3.67000000E+02
  4.69000000E+02  4.69000000E+02  4.69000000E+02  4.47000000E+02  4.34000000E+02
  4.28000000E+02  3.67000000E+02  4.27000000E+02  5.46000000E+02  3.88000000E+02
  3.17000000E+02  3.40000000E+02  3.10000000E+02  3.17000000E+02  4.34000000E+02
  3.37000000E+02  4.34000000E+02  3.40000000E+02  3.67000000E+02  3.40000000E+02
  3.10000000E+02  3.10000000E+02
%FLAG BOND_EQUIL_VALUE                                                          
%FORMAT(5E16.8)                                                                 
  1.22900000E+00  1.33500000E+00  1.09000000E+00  1.52200000E+00  1.08000000E+00
  1.40400000E+00  1.40000000E+00  1.40000000E+00  1.41900000E+00  1.01000000E+00
  1.38000000E+00  1.08000000E+00  1.38100000E+00  1.35200000E+00  1.45900000E+00
  1.49500000E+00  1.09000000E+00  1.52600000E+00  1.52200000E+00  1.01000000E+00
  1.44900000E+00  1.01000000E+00  1.09000000E+00  1.47100000E+00  1.09000000E+00
  1.52600000E+00  1.52600000E+00
%FLAG ANGLE_FORCE_CONSTANT                                                      
%FORMAT(5E16.8)                                                                 
  8.00000000E+01  5.00000000E+01  5.00000000E+01  5.00000000E+01  3.50000000E+01
  8.00000000E+01  7.00000000E+01  5.00000000E+01  5.00000000E+01  6.30000000E+01
  6.30000000E+01  6.30000000E+01  5.00000000E+01  6.30000000E+01  6.30000000E+01
  5.00000000E+01  7.00000000E+01  7.00000000E+01  5.00000000E+01  6.30000000E+01
  5.00000000E+01  7.00000000E+01  5.00000000E+01  7.00000000E+01  6.30000000E+01
  6.30000000E+01  5.00000000E+01  6.30000000E+01  7.00000000E+01  7.00000000E+01
  5.00000000E+01  5.00000000E+01  5.00000000E+01  6.30000000E+01  8.00000000E+01
  7.00000000E+01  5.00000000E+01  5.00000000E+01  8.00000000E+01  6.30000000E+01
  3.50000000E+01  3.50000000E+01  5.00000000E+01  3.50000000E+01  5.00000000E+01
  5.00000000E+01  3.50000000E+01  5.00000000E+01  8.00000000E+01  4.00000000E+01
  6.30000000E+01  5.00000000E+01  5.00000000E+01  4.00000000E+01  8.00000000E+01
  3.50000000E+01
%FLAG ANGLE_EQUIL_VALUE                                                         
%FORMAT(5E16.8)                                                                 
  2.14501057E+00  2.09439600E+00  2.12755727E+00  1.91113635E+00  1.91113635E+00
  2.10137732E+00  2.03505478E+00  2.09439600E+00  2.09439600E+00  2.09439600E+00
  2.09439600E+00  2.14151991E+00  2.09439600E+00  2.09439600E+00  2.02807346E+00
  2.14850123E+00  2.31779824E+00  1.82212452E+00  2.09439600E+00  1.85703112E+00
  2.09439600E+00  1.94778828E+00  2.09439600E+00  1.89717371E+00  1.89891904E+00
  2.35445017E+00  1.91113635E+00  1.93906163E+00  2.18166250E+00  2.24449438E+00
  1.91113635E+00  1.91113635E+00  1.91113635E+00  2.01760148E+00  2.10137732E+00
  2.03505478E+00  2.06018753E+00  1.91113635E+00  1.91462701E+00  1.92160833E+00
  1.91113635E+00  1.91113635E+00  1.91113635E+00  1.91113635E+00  1.91113635E+00
  1.91113635E+00  1.91113635E+00  1.91113635E+00  1.94080696E+00  1.91113635E+00
  1.93906163E+00  1.91113635E+00  1.91113635E+00  1.91113635E+00  1.91462701E+00
  2.09439600E+00
%FLAG DIHEDRAL_FORCE_CONSTANT                                                   
%FORMAT(5E16.8)                                                                 
  2.00000000E+00  2.50000000E+00  0.00000000E+00  0.00000000E+00  0.00000000E+00
  0.00000000E+00  8.00000000E-01  8.00000000E-02  3.62500000E+00  3.00000000E+00
  3.50000000E+00  1.52500000E+00  6.52500000E+00  1.50000000E+00  1.67500000E+00
  1.70000000E-02  3.53000000E-01  2.34000000E-01  7.40000000E-02  1.55555556E-01
  0.00000000E+00  3.65000000E-01  4.08000000E-01  8.19000000E-01  9.50000000E-02
  7.90000000E-02  3.13000000E-01  3.10000000E-02  0.00000000E+00  0.00000000E+00
  1.50000000E-01  1.60000000E-01  2.00000000E-01  2.50000000E-01  1.80000000E-01
  1.05000000E+01  0.00000000E+00  1.10000000E+00  1.00000000E+00
%FLAG DIHEDRAL_PERIODICITY                                                      
%FORMAT(5E16.8)                                                                 
  1.00000000E+00  2.00000000E+00  2.00000000E+00  1.00000000E+00  3.00000000E+00
  4.00000000E+00  1.00000000E+00  3.00000000E+00  2.00000000E+00  2.00000000E+00
  2.00000000E+00  2.00000000E+00  2.00000000E+00  2.00000000E+00  2.00000000E+00
  1.00000000E+00  2.00000000E+00  3.00000000E+00  4.00000000E+00  3.00000000E+00
  3.00000000E+00  1.00000000E+00  2.00000000E+00  3.00000000E+00  4.00000000E+00
  1.00000000E+00  2.00000000E+00  4.00000000E+00  1.00000000E+00  2.00000000E+00
  3.00000000E+00  3.00000000E+00  1.00000000E+00  2.00000000E+00  3.00000000E+00
  2.00000000E+00  2.00000000E+00  2.00000000E+00  2.00000000E+00
%FLAG DIHEDRAL_PHASE                                                            
%FORMAT(5E16.8)                                                                 
  0.00000000E+00  3.14159400E+00  0.00000000E+00  0.00000000E+00  0.00000000E+00
  0.00000000E+00  0.00000000E+00  3.14159400E+00  3.14159400E+00  3.14159400E+00
  3.14159400E+00  3.14159400E+00  3.14159400E+00  3.14159400E+00  3.14159400E+00
  3.14159400E+00  3.14159400E+00  0.00000000E+00  0.00000000E+00  0.00000000E+00
  3.14159400E+00  0.00000000E+00  0.00000000E+00  0.00000000E+00  3.14159400E+00
  0.00000000E+00  3.14159400E+00  0.00000000E+00  3.14159400E+00  3.14159400E+00
  0.00000000E+00  0.00000000E+00  3.14159400E+00  3.14159400E+00  0.00000000E+00
  3.14159400E+00  3.14159400E+00  3.14159400E+00  3.14159400E+00
%FLAG SCEE_SCALE_FACTOR                                                         
%FORMAT(5E16.8)                                                                 
  1.20000000E+00  1.20000000E+00  1.20000000E+00  1.20000000E+00  1.20000000E+00
  1.20000000E+00  1.20000000E+00  1.20000000E+00  1.20000000E+00  1.20000000E+00
  1.20000000E+00  1.20000000E+00  1.20000000E+00  1.20000000E+00  1.20000000E+00
  1.20000000E+00  1.20000000E+00  1.20000000E+00  1.20000000E+00  1.20000000E+00
  1.20000000E+00  1.20000000E+00  1.20000000E+00  1.20000000E+00  1.20000000E+00
  1.20000000E+00  1.20000000E+00  1.20000000E+00  1.20000000E+00  1.20000000E+00
  1.20000000E+00  1.20000000E+00  1.20000000E+00  1.20000000E+00  1.20000000E+00
  0.00000000E+00  0.00000000E+00  0.00000000E+00  0.00000000E+00
%FLAG SCNB_SCALE_FACTOR                                                         
%FORMAT(5E16.8)                                                                 
  2.00000000E+00  2.00000000E+00  2.00000000E+00  2.00000000E+00  2.00000000E+00
  2.00000000E+00  2.00000000E+00  2.00000000E+00  2.00000000E+00  2.00000000E+00
  2.00000000E+00  2.00000000E+00  2.00000000E+00  2.00000000E+00  2.00000000E+00
  2.00000000E+00  2.00000000E+00  2.00000000E+00  2.00000000E+00  2.00000000E+00
  2.00000000E+00  2.00000000E+00  2.00000000E+00  2.00000000E+00  2.00000000E+00
  2.00000000E+00  2.00000000E+00  2.00000000E+00  2.00000000E+00  2.00000000E+00
  2.00000000E+00  2.00000000E+00  2.00000000E+00  2.00000000E+00  2.00000000E+00
  0.00000000E+00  0.00000000E+00  0.00000000E+00  0.00000000E+00
%FLAG SOLTY                                                                     
%FORMAT(5E16.8)                                                                 
  0.00000000E+00  0.00000000E+00  0.00000000E+00  0.00000000E+00  0.00000000E+00
  0.00000000E+00  0.00000000E+00  0.00000000E+00  0.00000000E+00  0.00000000E+00
  0.00000000E+00  0.00000000E+00  0.00000000E+00  0.00000000E+00  0.00000000E+00
  0.00000000E+00  0.00000000E+00  0.00000000E+00  0.00000000E+00
%FLAG LENNARD_JONES_ACOEF                                                       
%FORMAT(5E16.8)                                                                 
  7.51607703E+03  9.71708117E+04  1.04308023E+06  8.61541883E+04  9.24822270E+05
  8.19971662E+05  5.44261042E+04  6.47841731E+05  5.74393458E+05  3.79876399E+05
  8.96776989E+04  9.95480466E+05  8.82619071E+05  6.06829342E+05  9.44293233E+05
  1.07193646E+02  2.56678134E+03  2.27577561E+03  1.02595236E+03  2.12601181E+03
  1.39982777E-01  4.98586848E+03  6.78771368E+04  6.01816484E+04  3.69471530E+04
  6.20665997E+04  5.94667300E+01  3.25969625E+03  5.34045360E+03  7.18621074E+04
  6.37148278E+04  3.93690817E+04  6.58473870E+04  6.63368273E+01  3.50301067E+03
  3.76169105E+03  6.55825601E+03  8.59947003E+04  7.62451550E+04  4.77908183E+04
  7.91627154E+04  8.90987508E+01  4.33325458E+03  4.64559155E+03  5.71629601E+03
  1.41077189E+03  2.27401052E+04  2.01619733E+04  1.12780457E+04  2.01791425E+04
  9.14716912E+00  8.79040886E+02  9.55000044E+02  1.21014911E+03  2.01823541E+02
%FLAG LENNARD_JONES_BCOEF                                                       
%FORMAT(5E16.8)                                                                 
  2.17257828E+01  1.26919150E+02  6.75612247E+02  1.12529845E+02  5.99015525E+02
  5.31102864E+02  1.11805549E+02  6.26720080E+02  5.55666448E+02  5.64885984E+02
  1.36131731E+02  7.36907417E+02  6.53361429E+02  6.77220874E+02  8.01323529E+02
  2.59456373E+00  2.06278363E+01  1.82891803E+01  1.53505284E+01  2.09604198E+01
  9.37598976E-02  1.76949863E+01  1.06076943E+02  9.40505980E+01  9.21192136E+01
  1.13252061E+02  1.93248820E+00  1.43076527E+01  1.81057616E+01  1.07908863E+02
  9.56748258E+01  9.40124296E+01  1.15327881E+02  2.01792524E+00  1.46638650E+01
  1.50233639E+01  2.00642027E+01  1.18043746E+02  1.04660679E+02  1.03580945E+02
  1.26451907E+02  2.33864085E+00  1.63092814E+01  1.66953734E+01  1.85196588E+01
  9.41257003E+00  6.13981767E+01  5.44372326E+01  5.08951803E+01  6.45756063E+01
  7.57919667E-01  7.42992380E+00  7.65648470E+00  8.61880722E+00  3.56012899E+00
%FLAG BONDS_INC_HYDROGEN                                                        
%FORMAT(10I8)                                                                   
       3       6       3       3       9       3       0       3       3      75
      78       5      69      72       5      63      66       5      57      60
       5      48      51      10      42      45      12      30      33       3
      30      36       3      24      27      17      18      21      20     102
     105       3     102     108       3     102     111       3      96      99
      17      90      93      20     126     129      17     126     132      17
     120     123      20     147     150      17     147     153      17     141
     144      20     210     213      22     210     216      22     210     219
      22     201     204      23     201     207      23     192     195      25
     192     198      25     183     186      25     183     189      25     174
     177      25     174     180      25     168     171      17     162     165
      20     240     243       3     240     246       3     240     249       3
     234     237      17     228     231      20     258     261      20     258
     264      20
%FLAG BONDS_WITHOUT_HYDROGEN                                                    
%FORMAT(10I8)                                                                   
      12      15       1      12      18       2       3      12       4      84
      87       1      84      90       2      75      81       6      69      75
       7      63      69       7      57      63       7      54      57       8
      54      81       9      48      54      11      42      48      13      39
      42      14      39      81      15      30      39      16      24      30
      18      24      84      19      18      24      21     114     117       1
     114     120       2      96     102      18      96     114      19      90
      96      21     135     138       1     135     141       2     126     135
      19     120     126      21     156     159       1     156     162       2
     147     156      19     141     147      21     222     225       1     222
     228       2     201     210      24     192     201      26     183     192
      26     174     183      26     168     174      27     168     222      19
     162     168      21     252     255       1     252     258       2     234
     240      18     234     252      19     228     234      21
%FLAG ANGLES_INC_HYDROGEN                                                       
%FORMAT(10I8)                                                                   
      12      18      21       2       9       3      12       4       6       3
       9       5       6       3      12       4       0       3       6       5
       0       3       9       5       0       3      12       4      84      90
      93       2      78      75      81       8      72      69      75       9
      69      75      78       9      66      63      69       9      63      69
      72       9      60      57      63       9      57      63      66       9
      54      57      60      13      51      48      54      16      45      42
      48      19      42      48      51      21      39      42      45      23
      36      30      39      27      33      30      36       5      33      30
      39      27      27      24      30      31      27      24      84      32
      24      30      33      33      24      30      36      33      21      18
      24      37      18      24      27      38     114     120     123       2
     108     102     111       5     105     102     108       5     105     102
     111       5      99      96     102      31      99      96     114      32
      96     102     105      33      96     102     108      33      96     102
     111      33      93      90      96      37      90      96      99      38
     135     141     144       2     132     126     135      32     129     126
     132      41     129     126     135      32     123     120     126      37
     120     126     129      38     120     126     132      38     156     162
     165       2     153     147     156      32     150     147     153      41
     150     147     156      32     144     141     147      37     141     147
     150      38     141     147     153      38     222     228     231       2
     216     210     219      42     213     210     216      42     213     210
     219      42     207     201     210      43     204     201     207      44
     204     201     210      43     201     210     213      45     201     210
     216      45     201     210     219      45     198     192     201      46
     195     192     198      47     195     192     201      46     192     201
     204      48     192     201     207      48     189     183     192      46
     186     183     189      47     186     183     192      46     183     192
     195      46     183     192     198      46     180     174     183      46
     177     174     180      47     177     174     183      46     174     183
     186      46     174     183     189      46     171     168     174      52
     171     168     222      32     168     174     177      53     168     174
     180      53     165     162     168      37     162     168     171      38
     252     258     261       2     252     258     264       2     246     240
     249       5     243     240     246       5     243     240     249       5
     237     234     240      31     237     234     252      32     234     240
     243      33     234     240     246      33     234     240     249      33
     231     228     234      37     228     234     237      38     261     258
     264      56
%FLAG ANGLES_WITHOUT_HYDROGEN                                                   
%FORMAT(10I8)                                                                   
      15      12      18       1      12      18      24       3       3      12
      15       6       3      12      18       7      87      84      90       1
      84      90      96       3      69      75      81      10      63      69
      75      11      57      54      81      12      57      63      69      11
      54      57      63      14      54      81      75      15      48      54
      57      17      48      54      81      18      42      39      81      20
      42      48      54      22      39      42      48      24      39      81
      54      25      39      81      75      26      30      24      84      28
      30      39      42      29      30      39      81      30      24      30
      39      34      24      84      87      35      24      84      90      36
      18      24      30      39      18      24      84      40     117     114
     120       1     114     120     126       3     102      96     114      28
      96     114     117      35      96     114     120      36      90      96
     102      39      90      96     114      40     138     135     141       1
     135     141     147       3     126     135     138      35     126     135
     141      36     120     126     135      40     159     156     162       1
     156     162     168       3     147     156     159      35     147     156
     162      36     141     147     156      40     225     222     228       1
     222     228     234       3     192     201     210      49     183     192
     201      50     174     168     222      51     174     183     192      50
     168     174     183      54     168     222     225      35     168     222
     228      36     162     168     174      55     162     168     222      40
     255     252     258       1     240     234     252      28     234     252
     255      35     234     252     258      36     228     234     240      39
     228     234     252      40
%FLAG DIHEDRALS_INC_HYDROGEN                                                    
%FORMAT(10I8)                                                                   
      15      12      18      21       1      15      12     -18      21       2
      12      18      24      27       3       9       3      12      15       7
       9       3     -12      15       3       9       3     -12      15       8
       9       3      12      18       3       6       3      12      15       7
       6       3     -12      15       3       6       3     -12      15       8
       6       3      12      18       3       3      12      18      21       2
       0       3      12      15       7       0       3     -12      15       3
       0       3     -12      15       8       0       3      12      18       3
      87      84      90      93       1      87      84     -90      93       2
      84      90      96      99       3      72      69      75      78       9
      72      69      75      81       9      66      63      69      72       9
      66      63      69      75       9      63      69      75      78       9
      60      57      54      81       9      60      57      63      66       9
      60      57      63      69       9      57      63      69      72       9
      54      57      63      66       9      54      81      75      78      11
      51      48      54      57      12      51      48      54      81      12
      48      54      57      60       9      45      42      39      81      13
      45      42      48      51      14      45      42      48      54      14
      39      42      48      51      14      39      81      75      78      11
      36      30      24      84      20      36      30      39      42       3
      36      30      39      81       3      33      30      24      84      20
      33      30      39      42       3      33      30      39      81       3
      30      39      42      45      13      27      24      30      33      20
      27      24      30      36      20      27      24      30      39      20
      27      24      84      87       4      27      24     -84      87       3
      27      24     -84      87      21      27      24      84      90       3
      24      84      90      93       2      21      18      24      27       3
      21      18      24      30       3      21      18      24      84       3
      18      24      30      33      20      18      24      30      36      20
     117     114     120     123       1     117     114    -120     123       2
     114     120     126     129       3     114     120     126     132       3
     111     102      96     114      20     108     102      96     114      20
     105     102      96     114      20      99      96     102     105      20
      99      96     102     108      20      99      96     102     111      20
      99      96     114     117       4      99      96    -114     117       3
      99      96    -114     117      21      99      96     114     120       3
      96     114     120     123       2      93      90      96      99       3
      93      90      96     102       3      93      90      96     114       3
      90      96     102     105      20      90      96     102     108      20
      90      96     102     111      20     138     135     141     144       1
     138     135    -141     144       2     135     141     147     150       3
     135     141     147     153       3     132     126     135     138       4
     132     126    -135     138       3     132     126    -135     138      21
     132     126     135     141       3     129     126     135     138       4
     129     126    -135     138       3     129     126    -135     138      21
     129     126     135     141       3     126     135     141     144       2
     123     120     126     129       3     123     120     126     132       3
     123     120     126     135       3     159     156     162     165       1
     159     156    -162     165       2     156     162     168     171       3
     153     147     156     159       4     153     147    -156     159       3
     153     147    -156     159      21     153     147     156     162       3
     150     147     156     159       4     150     147    -156     159       3
     150     147    -156     159      21     150     147     156     162       3
     147     156     162     165       2     144     141     147     150       3
     144     141     147     153       3     144     141     147     156       3
     225     222     228     231       1     225     222    -228     231       2
     222     228     234     237       3     207     201     210     213      20
     207     201     210     216      20     207     201     210     219      20
     204     201     210     213      20     204     201     210     216      20
     204     201     210     219      20     198     192     201     204      20
     198     192     201     207      20     198     192     201     210      20
     195     192     201     204      20     195     192     201     207      20
     195     192     201     210      20     192     201     210     213      20
     192     201     210     216      20     192     201     210     219      20
     189     183     192     195      31     189     183     192     198      31
     189     183     192     201      32     186     183     192     195      31
     186     183     192     198      31     186     183     192     201      32
     183     192     201     204      20     183     192     201     207      20
     180     174     168     222      20     180     174     183     186      31
     180     174     183     189      31     180     174     183     192      32
     177     174     168     222      20     177     174     183     186      31
     177     174     183     189      31     177     174     183     192      32
     174     183     192     195      32     174     183     192     198      32
     171     168     174     177      20     171     168     174     180      20
     171     168     174     183      20     171     168     222     225       4
     171     168    -222     225       3     171     168    -222     225      21
     171     168     222     228       3     168     174     183     186      32
     168     174     183     189      32     168     222     228     231       2
     165     162     168     171       3     165     162     168     174       3
     165     162     168     222       3     162     168     174     177      20
     162     168     174     180      20     255     252     258     261       1
     255     252    -258     261       2     255     252     258     264       1
     255     252    -258     264       2     249     240     234     252      20
     246     240     234     252      20     243     240     234     252      20
     237     234     240     243      20     237     234     240     246      20
     237     234     240     249      20     237     234     252     255       4
     237     234    -252     255       3     237     234    -252     255      21
     237     234     252     258       3     234     252     258     261       2
     234     252     258     264       2     231     228     234     237       3
     231     228     234     240       3     231     228     234     252       3
     228     234     240     243      20     228     234     240     246      20
     228     234     240     249      20      69      81     -75     -78      38
      63      75     -69     -72      38      57      69     -63     -66      38
      54      63     -57     -60      38      42      54     -48     -51      39
      39      48     -42     -45      38      12      24     -18     -21      38
      84      93     -90     -96      38     114     123    -120    -126      38
     135     144    -141    -147      38     156     165    -162    -168      38
     222     231    -228    -234      38     252     261    -258    -264      39
%FLAG DIHEDRALS_WITHOUT_HYDROGEN                                                
%FORMAT(10I8)                                                                   
      15      12      18      24       2      12      18      24      30       4
      12      18     -24      30       3      12      18     -24      30       5
      12      18     -24      30       6      12      18      24      84       4
      12      18     -24      84       3      12      18     -24      84       5
      12      18     -24      84       6       3      12      18      24       2
      87      84      90      96       2      84      90      96     102       4
      84      90     -96     102       3      84      90     -96     102       5
      84      90     -96     102       6      84      90      96     114       4
      84      90     -96     114       3      84      90     -96     114       5
      84      90     -96     114       6      63      57      54      81       9
      63      69     -75      81       9      57      54      81      75      10
      57      63     -69      75       9      54      57      63      69       9
      54      81     -75      69      11      48      42     -39      81      13
      48      54      57      63       9      48      54      81      75      10
      42      39     -81      54      15      42      39      81      75      15
      42      48      54      57      12      42      48     -54      81      12
      39      30      24      84      16      39      30     -24      84      17
      39      30     -24      84      18      39      30     -24      84      19
      39      42     -48      54      14      39      81     -54      48      10
      39      81      54      57      10      39      81      75      69      11
      30      24      84      87       3      30      24      84      90       4
      30      24     -84      90       3      30      24     -84      90       5
      30      24     -84      90       6      30      39      42      48      13
      30      39      81      54      15      30      39      81      75      15
      24      30      39      42       4      24      30     -39      42       3
      24      30     -39      42       5      24      30     -39      42       6
      24      30      39      81      22      24      30     -39      81      23
      24      30     -39      81      24      24      30     -39      81      25
      24      84      90      96       2      18      24      30      39      26
      18      24     -30      39      27      18      24     -30      39      18
      18      24     -30      39      28      18      24      84      87       3
      18      24      84      90      29      18      24     -84      90      30
      18      24     -84      90      21      18      24     -84      90       6
     117     114     120     126       2     114     120     126     135       4
     114     120    -126     135       3     114     120    -126     135       5
     114     120    -126     135       6     102      96     114     117       3
     102      96     114     120       4     102      96    -114     120       3
     102      96    -114     120       5     102      96    -114     120       6
      96     114     120     126       2      90      96     114     117       3
      90      96     114     120      29      90      96    -114     120      30
      90      96    -114     120      21      90      96    -114     120       6
     138     135     141     147       2     135     141     147     156       4
     135     141    -147     156       3     135     141    -147     156       5
     135     141    -147     156       6     126     135     141     147       2
     120     126     135     138       3     120     126     135     141      29
     120     126    -135     141      30     120     126    -135     141      21
     120     126    -135     141       6     159     156     162     168       2
     156     162     168     174       4     156     162    -168     174       3
     156     162    -168     174       5     156     162    -168     174       6
     156     162     168     222       4     156     162    -168     222       3
     156     162    -168     222       5     156     162    -168     222       6
     147     156     162     168       2     141     147     156     159       3
     141     147     156     162      29     141     147    -156     162      30
     141     147    -156     162      21     141     147    -156     162       6
     225     222     228     234       2     222     228     234     240       4
     222     228    -234     240       3     222     228    -234     240       5
     222     228    -234     240       6     222     228     234     252       4
     222     228    -234     252       3     222     228    -234     252       5
     222     228    -234     252       6     183     174     168     222      20
     183     192     201     210      20     174     168     222     225       3
     174     168     222     228       4     174     168    -222     228       3
     174     168    -222     228       5     174     168    -222     228       6
     174     183     192     201      33     174     183    -192     201      34
     174     183    -192     201      35     168     174     183     192      33
     168     174    -183     192      34     168     174    -183     192      35
     168     222     228     234       2     162     168     174     183      20
     162     168     222     225       3     162     168     222     228      29
     162     168    -222     228      30     162     168    -222     228      21
     162     168    -222     228       6     240     234     252     255       3
     240     234     252     258       4     240     234    -252     258       3
     240     234    -252     258       5     240     234    -252     258       6
     228     234     252     255       3     228     234     252     258      29
     228     234    -252     258      30     228     234    -252     258      21
     228     234    -252     258       6       3      18     -12     -15      36
      24      90     -84     -87      36      39      54     -81     -75      37
      48      57     -54     -81      37      81      30     -39     -42      38
      96     120    -114    -117      36     126     141    -135    -138      36
     147     162    -156    -159      36     168     228    -222    -225      36
     234     258    -252    -255      36
%FLAG EXCLUDED_ATOMS_LIST                                                       
%FORMAT(10I8)                                                                   
       2       3       4       5       6       7       3       4       5       6
       7       8       9       4       5       6       7       5       6       7
       6       7       8       9      10      11      29       7       8       9
       8       9      10      11      12      13      14      29      30      31
       9      10      11      29      10      11      12      13      14      15
      28      29      30      31      32      33      11      12      13      14
      29      30      31      12      13      14      15      16      17      19
      26      28      29      30      31      13      14      15      28      29
      14      15      28      29      15      16      17      18      19      20
      24      26      27      28      29      16      17      18      19      20
      26      28      17      18      19      28      18      19      20      21
      22      26      28      19      20      28      20      21      22      23
      24      26      27      28      21      22      23      24      25      26
      28      22      23      24      28      23      24      25      26      27
      28      24      25      26      25      26      27      28      26      27
      28      27      28      28       0      30      31      32      33      34
      35      39      31      32      33      32      33      34      35      36
      37      38      39      40      41      33      34      35      39      34
      35      36      37      38      39      40      41      42      43      35
      36      37      38      39      40      41      36      37      38      39
      40      41      37      38      39      38      39      39      40      41
      42      43      44      45      46      41      42      43      42      43
      44      45      46      47      48      43      44      45      46      44
      45      46      47      48      49      50      45      46      47      48
      46      47      48      47      48      49      50      51      52      53
      48      49      50      49      50      51      52      53      54      55
      50      51      52      53      51      52      53      54      55      56
      57      52      53      54      55      53      54      55      54      55
      56      57      58      59      75      55      56      57      56      57
      58      59      60      61      62      75      76      77      57      58
      59      75      58      59      60      61      62      63      64      65
      75      76      77      78      79      59      60      61      62      75
      76      77      60      61      62      63      64      65      66      67
      68      75      76      77      61      62      63      64      65      75
      62      63      64      65      75      63      64      65      66      67
      68      69      70      71      75      64      65      66      67      68
      65      66      67      68      66      67      68      69      70      71
      72      73      74      67      68      69      70      71      68      69
      70      71      69      70      71      72      73      74      70      71
      72      73      74      71      72      73      74      72      73      74
      73      74      74       0      76      77      78      79      80      81
      85      77      78      79      78      79      80      81      82      83
      84      85      86      87      79      80      81      85      80      81
      82      83      84      85      86      87      88      89      81      82
      83      84      85      86      87      82      83      84      85      86
      87      83      84      85      84      85      85      86      87      88
      89      87      88      89      88      89      89       0
%FLAG HBOND_ACOEF                                                               
%FORMAT(5E16.8)                                                                 

%FLAG HBOND_BCOEF                                                               
%FORMAT(5E16.8)                                                                 

%FLAG HBCUT                                                                     
%FORMAT(5E16.8)                                                                 

%FLAG AMBER_ATOM_TYPE                                                           
%FORMAT(20a4)                                                                   
HC  CT  HC  HC  C   O   N   H   XC  H1  CT  HC  HC  C*  CW  H4  NA  H   CN  CA  
HA  CA  HA  CA  HA  CA  HA  CB  C   O   N   H   XC  H1  CT  HC  HC  HC  C   O   
N   H   XC  H1  H1  C   O   N   H   XC  H1  H1  C   O   N   H   XC  H1  C8  HC  
HC  C8  HC  HC  C8  HC  HC  C8  HP  HP  N3  H   H   H   C   O   N   H   XC  H1  
CT  HC  HC  HC  C   O   N   H   H   
%FLAG TREE_CHAIN_CLASSIFICATION                                                 
%FORMAT(20a4)                                                                   
M   M   E   E   M   E   M   E   M   E   3   E   E   B   B   E   B   E   S   B   
E   B   E   B   E   S   E   E   M   E   M   E   M   E   3   E   E   E   M   E   
M   E   M   E   E   M   E   M   E   M   E   E   M   E   M   E   M   E   3   E   
E   3   E   E   3   E   E   3   E   E   3   E   E   E   M   E   M   E   M   E   
3   E   E   E   M   E   M   E   E   
%FLAG JOIN_ARRAY                                                                
%FORMAT(10I8)                                                                   
       0       0       0       0       0       0       0       0       0       0
       0       0       0       0       0       0       0       0       0       0
       0       0       0       0       0       0       0       0       0       0
       0       0       0       0       0       0       0       0       0       0
       0       0       0       0       0       0       0       0       0       0
       0       0       0       0       0       0       0       0       0       0
       0       0       0       0       0       0       0       0       0       0
       0       0       0       0       0       0       0       0       0       0
       0       0       0       0       0       0       0       0       0
%FLAG IROTAT                                                                    
%FORMAT(10I8)                                                                   
       0       0       0       0       0       0       0       0       0       0
       0       0       0       0       0       0       0       0       0       0
       0       0       0       0       0       0       0       0       0       0
       0       0       0       0       0       0       0       0       0       0
       0       0       0       0       0       0       0       0       0       0
       0       0       0       0       0       0       0       0       0       0
       0       0       0       0       0       0       0       0       0       0
       0       0       0       0       0       0       0       0       0       0
       0       0       0       0       0       0       0       0       0
%FLAG RADIUS_SET                                                                
%FORMAT(1a80)                                                                   
modified Bondi radii (mbondi)                                                   
%FLAG RADII                                                                     
%FORMAT(5E16.8)                                                                 
  1.30000000E+00  1.70000000E+00  1.30000000E+00  1.30000000E+00  1.70000000E+00
  1.50000000E+00  1.55000000E+00  1.30000000E+00  1.70000000E+00  1.30000000E+00
  1.70000000E+00  1.30000000E+00  1.30000000E+00  1.70000000E+00  1.70000000E+00
  1.30000000E+00  1.55000000E+00  1.30000000E+00  1.70000000E+00  1.70000000E+00
  1.30000000E+00  1.70000000E+00  1.30000000E+00  1.70000000E+00  1.30000000E+00
  1.70000000E+00  1.30000000E+00  1.70000000E+00  1.70000000E+00  1.50000000E+00
  1.55000000E+00  1.30000000E+00  1.70000000E+00  1.30000000E+00  1.70000000E+00
  1.30000000E+00  1.30000000E+00  1.30000000E+00  1.70000000E+00  1.50000000E+00
  1.55000000E+00  1.30000000E+00  1.70000000E+00  1.30000000E+00  1.30000000E+00
  1.70000000E+00  1.50000000E+00  1.55000000E+00  1.30000000E+00  1.70000000E+00
  1.30000000E+00  1.30000000E+00  1.70000000E+00  1.50000000E+00  1.55000000E+00
  1.30000000E+00  1.70000000E+00  1.30000000E+00  1.70000000E+00  1.30000000E+00
  1.30000000E+00  1.70000000E+00  1.30000000E+00  1.30000000E+00  1.70000000E+00
  1.30000000E+00  1.30000000E+00  1.70000000E+00  1.30000000E+00  1.30000000E+00
  1.55000000E+00  1.30000000E+00  1.30000000E+00  1.30000000E+00  1.70000000E+00
  1.50000000E+00  1.55000000E+00  1.30000000E+00  1.70000000E+00  1.30000000E+00
  1.70000000E+00  1.30000000E+00  1.30000000E+00  1.30000000E+00  1.70000000E+00
  1.50000000E+00  1.55000000E+00  1.30000000E+00  1.30000000E+00
%FLAG SCREEN                                                                    
%FORMAT(5E16.8)                                                                 
  8.50000000E-01  7.20000000E-01  8.50000000E-01  8.50000000E-01  7.20000000E-01
  8.50000000E-01  7.90000000E-01  8.50000000E-01  7.20000000E-01  8.50000000E-01
  7.20000000E-01  8.50000000E-01  8.50000000E-01  7.20000000E-01  7.20000000E-01
  8.50000000E-01  7.90000000E-01  8.50000000E-01  7.20000000E-01  7.20000000E-01
  8.50000000E-01  7.20000000E-01  8.50000000E-01  7.20000000E-01  8.50000000E-01
  7.20000000E-01  8.50000000E-01  7.20000000E-01  7.20000000E-01  8.50000000E-01
  7.90000000E-01  8.50000000E-01  7.20000000E-01  8.50000000E-01  7.20000000E-01
  8.50000000E-01  8.50000000E-01  8.50000000E-01  7.20000000E-01  8.50000000E-01
  7.90000000E-01  8.50000000E-01  7.20000000E-01  8.50000000E-01  8.50000000E-01
  7.20000000E-01  8.50000000E-01  7.90000000E-01  8.50000000E-01  7.20000000E-01
  8.50000000E-01  8.50000000E-01  7.20000000E-01  8.50000000E-01  7.90000000E-01
  8.50000000E-01  7.20000000E-01  8.50000000E-01  7.20000000E-01  8.50000000E-01
  8.50000000E-01  7.20000000E-01  8.50000000E-01  8.50000000E-01  7.20000000E-01
  8.50000000E-01  8.50000000E-01  7.20000000E-01  8.50000000E-01  8.50000000E-01
  7.90000000E-01  8.50000000E-01  8.50000000E-01  8.50000000E-01  7.20000000E-01
  8.50000000E-01  7.90000000E-01  8.50000000E-01  7.20000000E-01  8.50000000E-01
  7.20000000E-01  8.50000000E-01  8.50000000E-01  8.50000000E-01  7.20000000E-01
  8.50000000E-01  7.90000000E-01  8.50000000E-01  8.50000000E-01
%FLAG IPOL                                                                      
%FORMAT(1I8)                                                                    
       0
%FLAG CMAP_COUNT                                                                
%FORMAT(2I8)                                                                    
       6       4                                                                
%FLAG CMAP_RESOLUTION                                                           
%FORMAT(20I4)                                                                   
  24  24  24  24
%FLAG CMAP_PARAMETER_01                                                         
%COMMENT  Gly CMAP                                                              
%FORMAT(8F9.5)                                                                  
  0.82366  1.09817  1.13106  1.38658  2.11377  3.63194  5.20835  4.52792
  4.24857  3.42100  2.57125  2.21561  4.26659  2.21561  2.57125  3.42110
  4.24858  4.52792  4.29107  3.63184  2.03731  1.32036  1.12797  1.09814
  1.01976  0.89767  0.89484  1.21525  1.97095  3.70570  4.38855  4.65256
  4.43948  3.89754  4.21954  2.92219  1.83300  1.61528  2.13407  3.13273
  4.03304  4.37836  4.21500  3.54162  2.14871  1.44646  1.20387  1.08264
  0.94294  0.79652  0.83328  1.24136  2.06053  3.43883  4.17385  4.53101
  4.43115  4.03641  3.71837  2.02965  1.28863  1.21833  1.89263  2.85593
  4.80291  4.23497  4.08718  3.49858  2.17811  1.53114  1.22608  1.06909
  1.06124  0.90425  0.95129  1.35925  1.80900  3.18916  3.85055  4.27470
  4.17515  3.68355  2.71193  1.96823  0.88051  1.02084  1.59189  2.52883
  3.47767  4.03244  3.86779  3.39508  2.23969  1.66969  1.33019  1.16679
  1.08157  1.02005  1.10493  1.29605  1.79270  2.88632  3.63402  4.05349
  3.97657  3.35415  2.24207  1.18576  0.74267  0.67495  1.31122  2.24278
  3.21905  3.69186  4.76949  4.00571  2.34764  1.77622  1.34849  1.12849
  1.09360  0.76295  0.64220  1.00733  1.73708  2.50787  3.41571  4.45847
  3.84910  3.11193  1.97839  1.18177  0.33803  0.43176  1.23577  2.17947
  2.92428  3.38497  3.39138  3.10177  3.35228  2.15282  1.45287  1.28536
  0.61764  0.23640  0.15650  0.65857  1.56522  2.44967  3.17669  3.78043
  4.22216  2.79953  1.66579  0.59084  0.15579  0.43594  1.52040  2.27449
  2.76979  3.16911  3.12455  2.92674  2.45824  1.88927  1.36443  0.95121
 -0.00243 -0.14438  0.06931  0.84132  1.89921  2.91978  3.46170  3.60722
  3.77366  2.18724  1.52870  0.20777  0.22187  1.10049  2.08960  2.88893
  3.46272  3.66327  3.40280  3.02172  2.23074  1.32476  0.62376  0.25154
 -0.24862  0.05886  0.73935  1.98217  3.25167  4.06285  4.21447  3.90130
  2.90300  1.70374  0.74057  0.52755  1.12943  2.10802  2.78056  3.65981
  4.30377  4.58476  4.35318  3.65296  2.33204  0.81283  0.00000 -0.29835
  0.44379  1.32981  2.39709  3.82578  5.02459  5.42450  4.99639  4.00610
  2.64886  1.63847  1.37610  1.71448  2.28503  2.64949  3.24747  4.17266
  5.17265  5.75041  5.58476  4.21912  2.20540  0.64843  0.02065 -0.08593
  2.15530  3.40478  4.51993  5.80241  6.12627  6.00746  5.12631  4.58197
  2.80154  2.55737  2.87599  2.95502  2.71629  2.60279  3.64721  4.53964
  5.90407  6.82108  6.15044  4.18011  2.15201  0.96807  0.81255  1.19704
  4.21011  5.19583  5.45356  5.26216  5.22957  4.91772  4.44698  3.93537
  3.74038  4.11322  3.92595  2.94210  2.11295  2.42266  3.12536  4.83315
  6.43292  6.19670  5.13463  3.65052  2.40663  2.07125  2.29840  3.03351
  5.33877  4.55338  3.87255  3.87071  3.62149  3.87069  4.31250  4.77933
  5.37137  5.20874  3.65026  2.18763  2.20027  2.18700  3.65026  5.21405
  5.24065  4.77943  4.31250  3.87553  3.63325  5.19982  3.88530  4.53465
  4.20747  3.02450  2.29840  2.07135  2.40664  3.65062  5.13204  6.19680
  6.43292  4.83351  3.12587  2.96667  2.11029  2.93241  3.92594  4.11322
  3.74082  3.93551  4.44698  4.92068  5.53058  5.24416  5.35209  5.19605
  2.15668  1.19704  0.81255  0.96806  2.15211  4.17062  6.15034  6.82108
  5.90407  4.54177  3.63728  2.60267  2.71853  2.95502  2.87589  2.55737
  2.80717  3.89294  5.12631  6.00746  6.12372  5.80230  5.01898  3.40679
  0.45450 -0.08700  0.02065  0.64843  2.20540  4.21912  5.58476  5.75041
  5.17265  4.16788  3.24747  2.64460  2.28503  1.72593  1.37610  1.63847
  2.64538  4.01006  5.00425  5.42091  5.02459  3.80593  2.39681  1.32981
 -0.24862 -0.29835  0.00000  0.81283  2.33214  3.64847  4.35318  4.59008
  4.30377  3.65991  2.78056  2.10802  1.84494  0.52754  0.74067  1.61716
  2.90300  3.89516  4.21447  4.06285  3.25166  1.98217  0.73946  0.07427
 -0.00243  0.25154  0.64043  1.82987  2.23143  3.02038  3.40280  3.66327
  3.46272  2.88893  2.08960  1.10049  0.22171  0.20862  1.52897  2.18595
  3.24376  3.60722  3.46170  2.91968  1.89590  0.84888  0.07066 -0.14460
  0.61764  0.94007  1.36444  1.88927  2.45691  2.92674  3.12469  3.16911
  2.76979  2.27377  1.52040  0.44049  0.15579  0.59084  1.66579  2.79477
  4.25589  3.78043  3.17669  2.45043  1.56512  0.65855  0.15650  0.23719
  1.09360  1.28549  1.45287  2.15281  2.67683  3.10177  3.39138  3.38497
  2.91731  2.17947  1.23582  0.43170  0.33793  1.00844  1.97383  3.11193
  3.84910  4.46392  3.41571  2.50787  1.73708  1.00733  0.64220  0.76295
  0.97094  1.11640  1.33640  1.77623  2.30465  3.21763  3.71128  3.69186
  3.21905  2.24277  1.31122  0.67238  0.74272  1.18578  2.24207  3.35415
  3.97657  4.05349  3.63266  2.88632  1.79270  1.23680  1.00391  1.05657
  0.98044  1.16708  1.33038  1.66969  2.23969  3.39508  3.86779  4.03243
  3.47590  2.52883  1.59193  1.02084  0.88051  1.46518  2.71203  3.68355
  4.17470  4.27471  3.85203  3.18916  1.80900  1.35925  0.95109  0.90998
  0.92229  1.06909  1.22608  1.53114  2.17810  3.49858  4.08708  4.23358
  3.81032  2.85593  1.89254  1.21833  1.28863  2.03059  3.37664  4.03661
  4.43079  4.53101  4.17385  3.43883  2.06053  1.24136  0.83440  0.79652
  1.01976  1.08264  1.20394  1.44647  2.14870  3.54162  4.22527  4.37836
  4.03304  3.13273  2.13407  1.61528  1.83300  2.92219  4.10899  3.89754
  4.43948  4.65256  4.38856  3.70570  1.97095  1.21515  0.89442  0.89767
%FLAG CMAP_PARAMETER_02                                                         
%COMMENT  Ala CMAP                                                              
%FORMAT(8F9.5)                                                                  
 -0.40490 -0.91563 -0.66011 -0.12395  0.67400  1.66712  2.29819  2.59327
  2.26341  1.68604  1.08454  0.71831 -0.48870 -1.12865 -0.92439 -0.34344
  0.32979  0.59769  0.44008 -0.02411 -0.36985 -0.85317 -0.95648 -1.10907
 -0.57095 -0.51404 -0.20974  0.13143  0.76924  1.59233  2.29037  2.67125
  3.36182  2.18892  2.73567  0.45223 -0.65830 -0.99890 -0.71628  0.42576
  0.53333  0.77654  0.66928  0.32986  0.00178 -0.28339 -0.35321 -0.52818
 -0.04441  1.18495  0.28672  0.49834  1.04770  1.74318  2.42981  2.78424
  2.83854  2.61585  1.87191  0.41363 -0.42895 -0.65692  0.55228  0.27728
  0.92789  1.20682  1.03564  0.82326  0.50898  0.23806  0.20869  0.03162
  0.75270  0.92426  0.87815  1.07435  1.34904  1.95311  2.55584  3.01644
  2.98774  2.58246  1.60744  0.42752 -0.30354 -0.31446 -0.03375  0.52111
  1.16914  1.46572  1.98214  1.17058  0.95531  0.70808  0.78722  1.35766
  1.34685  2.28011  1.28633  1.21465  1.51939  2.05226  2.68560  3.11202
  2.91890  2.50948  1.45835  0.41028 -0.10582 -0.34705 -0.04464  0.55547
  1.11301  1.35870  1.48001  1.35541  1.12115  0.95721  1.12820  1.22585
  2.04850  1.37875  1.14784  1.59064  1.72039  1.78908  3.30313  3.04054
  2.98842  2.41992  1.44654  0.52504 -0.06270 -0.27801  0.87234  0.67598
  0.94307  1.15416  1.20141  1.24110  1.26105  1.20805  1.33113  1.49416
  1.04113  0.90852  0.69483  0.85361  1.26559  1.89687  2.63196  4.14974
  2.85712  2.19037  1.16979  0.05713 -0.34982 -0.13111  1.14408  0.72916
  0.83976  0.87834  2.10017  1.17948  1.17775  1.17175  1.28140  1.31313
  0.56020  0.54579  0.70265  1.11648  1.74498  2.34101  3.30438  2.91742
  2.51820  1.80071  0.63368 -0.12153  0.06806  0.72937  1.10420  1.35758
  1.49864  1.53737  1.46180  1.46294  1.03983  0.71730  0.57013  0.61315
  0.24962  0.58339  1.16380  1.97603  2.89121  3.52557  3.68570  3.11960
  2.13455  1.15056  0.41716  0.25190  0.90813  1.46041  1.72423  2.08326
  2.41176  2.51527  2.40584  2.10326  1.06657  0.24926  0.00000  0.09150
  0.69001  1.45869  2.56017  3.51462  4.36327  4.88489  4.44136  3.31773
  1.94048  1.18640  1.14388  1.38827  1.99448  1.97586  2.10793  2.62567
  3.22808  3.67878  3.65514  2.76833  1.09340 -0.02756 -0.20820  0.11394
  2.04863  3.24028  4.45604  5.33890  5.83417  5.62064  4.51400  3.15546
  2.11289  2.12474  2.51205  2.64497  2.21088  1.89502  2.06746  3.01892
  4.17428  5.04288  4.34485  2.58422  0.91721  0.02839  0.38724  1.08963
  3.86396  5.17448  4.99907  4.71176  4.69475  4.40584  3.94871  3.17716
  3.06333  3.67246  4.29338  2.44448  1.35877  2.75298  2.01318  3.50593
  5.09938  4.27559  3.31646  1.97909  0.94467  0.88095  1.62501  2.60184
  5.48793  4.77064  3.78644  3.36104  3.22046  3.45658  3.76845  4.19099
  4.55308  4.85880  2.97166  1.40450  1.55754  1.01694  2.55251  4.15890
  3.59316  2.89015  2.39954  2.03475  2.02513  2.33480  3.18431  4.21056
  4.70559  3.27912  2.28983  1.85924  2.16582  3.20992  4.49444  5.42412
  5.98035  4.20595  2.46249  1.80286  1.41486  2.22339  3.40125  3.01974
  2.06463  1.98502  2.41985  3.03336  3.42492  3.76647  4.58344  5.51267
  2.34028  1.47026  0.70060  0.67110  1.72673  3.69931  5.49162  6.13923
  5.15665  3.78295  2.61455  3.27648  2.23785  2.65327  2.09930  0.98357
  0.83115  1.73620  2.87719  3.88918  4.40086  4.76522  4.34641  3.40891
  0.89883  0.26728  0.50152  0.12164  1.64744  3.66760  4.84258  4.73428
  4.15359  3.27829  2.48102  2.07496  1.77587  1.23018  0.22862 -0.17811
  0.36837  1.62610  2.66752  3.41452  3.43224  3.08090  2.54957  1.61094
  0.32705 -0.14752 -0.38279 -0.00752  1.31062  2.89019  3.39946  3.48428
  3.29026  2.66680  1.96417  1.33230  0.70261 -0.31922 -0.88675 -0.59803
  0.32944  1.32712  1.88494  2.20282  2.13265  1.82079  1.35338  0.71220
 -0.03270 -0.18304 -0.26783  0.12774  0.88323  1.96743  2.18027  2.30248
  2.25909  1.78219  1.00274  0.24927 -0.80554 -1.41955 -1.17733 -0.22422
  1.19834  1.07092  1.05260  0.95885  0.87757  0.60790  0.30853  0.05046
  0.08873  0.15910  0.22294  0.37757  0.76603  1.36872  1.54866  1.47050
  1.32077  0.90501  0.18754 -0.81180 -1.70050 -1.70896 -0.87307 -0.00331
  0.74981  0.73853  0.55032  0.27050 -0.03313 -0.23059 -0.27425 -0.15004
  1.38786  0.31030  0.31376  0.30435  0.69516  1.26684  1.67665  1.73040
  1.48205  0.83164  0.78021 -1.27092 -1.69247 -1.59919 -0.87185  0.23049
  0.75546  0.68419  0.50548  0.18474 -0.18354 -0.22863 -0.03965  0.15614
  1.13038  0.28339  0.13603  0.26411  0.64582  1.31757  2.01140  2.13005
  1.85723  0.94711 -0.10199 -0.99228 -1.35141 -1.23057 -0.39240  0.63569
  1.03002  0.93699  1.12925  0.94167  0.14233  0.14305  0.34318  0.43742
 -0.18145 -0.18129 -0.36426 -0.02774  0.57160  1.29873  2.16831  2.37053
  1.81288  0.84225 -0.13994 -0.87562 -1.03375 -0.75156  0.33665  1.25211
  1.11963  1.00266  0.72525  0.87651  0.22308  0.12905  0.05647 -0.10214
 -1.05110 -0.75879 -0.79562 -0.36879  0.45648  1.36193  2.25739  2.41888
  1.79507  0.83030 -0.09049 -0.76021 -0.87672 -0.19067  0.64936  0.61856
  0.80179  0.82609  0.68948  0.43884 -0.07529 -0.55654 -0.80787 -1.00697
 -1.21902 -1.03039 -0.88255 -0.32105  0.49201  1.53828  2.43182  2.53201
  1.97701  1.22953  0.40353 -0.11048 -0.00493 -0.40512 -0.63562 -0.14764
  0.47545  0.72229  0.59153  0.14907 -0.47001 -0.96318 -1.22829 -1.35376
%FLAG CMAP_PARAMETER_03                                                         
%COMMENT  Lys CMAP                                                              
%FORMAT(8F9.5)                                                                  
 -1.13164 -0.62346 -0.24209 -0.02973  0.48480  1.23694  2.04575  2.29166
  2.02876  1.62703  1.27127  0.35950 -1.42623 -2.05405 -1.64702 -0.75066
  0.09360  0.45285  0.21807 -0.18586 -0.73583 -1.13344 -1.19694 -1.19062
 -0.64060 -0.32893  0.02012  0.02118  0.47137  1.14861  1.91913  2.36069
  2.22229  1.95149  1.20614 -0.57017 -1.75076 -2.03501 -1.58763 -0.64877
  0.30096  0.62023  0.45342  0.04313 -0.46090 -0.79564 -0.82334 -0.74223
 -0.24137 -0.11209  0.08544  0.05425  0.40854  1.14888  2.02651  2.38762
  2.30421  2.65775  0.84980 -0.58949 -1.42718 -1.56969 -1.12474 -0.27600
  0.57048  0.92694  0.75506  0.36313  0.41248 -0.25267 -0.29508 -0.30702
  0.15784  0.16124  0.21528  0.19125  0.52652  1.17640  2.01822  2.39523
  2.25697  1.97743  0.85670 -0.29822 -0.64315 -0.71138 -0.30686  0.45873
  0.81134  1.29671  1.19500  0.84969  0.46708  0.29043  0.21746  0.16500
  0.89392  0.71753  0.57115  0.43890  0.76485  1.44400  2.31824  2.67943
  2.58376  2.16804  1.23014  0.82763 -0.51969 -0.73656 -0.32147  0.44935
  1.20995  1.60156  1.65872  1.41868  1.06413  0.88918  1.40765  0.89807
  1.39127  1.14527  0.83908  0.62088  1.03137  2.44461  3.61122  3.03639
  2.93037  2.34216  1.25412  0.23792 -0.42524 -0.47841  0.12423  0.77695
  1.18318  1.45904  1.64051  1.57482  1.43824  1.35338  1.42422  1.50599
  1.03940  0.78129  0.55141  0.59044  1.11541  1.93195  3.28135  3.10600
  2.87709  2.08673  0.97761 -0.07189 -0.55989 -0.15343  0.59138  0.86483
  1.13795  1.36979  1.55187  1.49198  1.31001  1.19377  1.27168  1.26717
  0.31570  0.32645  0.43538  0.89961  1.65773  2.35060  2.92667  3.00795
  2.52682  1.60328  0.45969  0.23113 -0.28882  1.23655  1.15894  1.54835
  1.88547  1.93525  1.86074  1.72151  1.65432  0.72519  0.57772  0.96376
  0.01270  0.24227  0.76959  1.64854  2.60813  3.46061  3.69061  3.18918
  2.22863  1.15788  0.39483  0.21073  0.68040  2.18832  1.80572  2.24818
  2.70988  2.86880  2.79105  2.41410  2.01156  0.35940  0.00000  0.00646
  0.35073  0.90201  2.00003  3.08122  4.18056  4.93815  4.63514  3.60238
  2.75114  1.43898  1.23584  1.46770  2.07827  2.18651  2.36403  2.96159
  3.67909  4.13912  4.10653  3.18582  1.51669  0.18861 -0.06191  0.04962
  1.53826  2.58483  4.03310  5.05092  6.11295  6.14815  5.20647  3.81976
  2.76531  2.50097  2.69420  2.97134  2.67683  2.45579  2.69794  3.72189
  4.88760  5.73443  5.25225  3.32794  1.50262  0.37839  0.90315  0.93349
  3.53826  4.97003  5.16584  4.77571  4.97699  4.94501  4.73810  4.10406
  3.72549  4.11352  4.26970  3.27545  2.15952  2.71722  2.87070  4.71124
  5.93638  5.07391  4.12244  2.88828  2.59390  1.43687  1.95877  2.78313
  5.77443  4.46997  3.56825  3.21013  3.29175  3.88737  4.64985  4.86020
  5.40449  5.58649  3.52430  1.95498  2.12058  1.64132  3.18061  4.76232
  4.12981  3.48929  3.28524  2.96613  2.82022  3.09461  3.81784  4.80706
  4.81125  3.11064  2.19879  1.79413  2.26340  3.62230  5.03506  6.19526
  6.42134  4.54813  2.74872  2.01212  1.67501  2.46391  3.72853  3.32011
  2.54393  2.64930  4.53517  3.65435  4.11000  4.43677  5.16380  5.36330
  2.40638  1.42733  0.83483  0.72279  1.83113  3.87438  5.88103  6.54537
  5.44021  4.07584  2.89687  2.46565  2.57255  2.85706  2.48850  1.54075
  1.55152  2.30832  3.47039  4.36402  4.62076  5.24285  4.48773  3.44960
  1.10697  0.48844  0.05413  0.22301  1.84021  4.72185  5.44366  5.35532
  4.78976  3.85091  3.07756  2.70321  2.41981  1.79438  0.82855  0.52195
  1.15697  2.28904  3.44297  4.00628  3.92284  3.44623  2.77364  1.79239
  0.57707  0.21457  0.12757  0.11426  1.68939  3.35709  3.67419  3.88209
  3.86371  3.22634  2.49647  1.84377  1.15687  0.09138 -0.36996 -0.04023
  1.02408  2.05775  2.68926  2.74955  2.42499  2.04678  1.55711  1.00697
  0.05163  0.00299 -0.17038  0.08753  1.18689  2.24636  2.73093  2.76323
  2.65887  2.14045  1.40562  0.50704 -0.61236 -1.29634 -1.05969 -0.13291
  0.96124  1.48528  1.46883  1.23917  0.87082  0.57255  0.35700  0.19011
 -0.10233  0.05477 -0.00840  0.09387  0.67551  1.37869  1.72925  1.53428
  1.31553  0.82680  0.14475 -0.97642 -1.85541 -1.92868 -1.09786  0.07237
  0.91454  0.97238  0.58573  0.26675 -0.11967 -0.34550 -0.35246 -0.32802
  0.52160  0.15688 -0.09909 -0.06538  0.41444  1.10954  1.57762  1.58789
  1.28279  0.65634 -0.44715 -1.51329 -2.08018 -1.90600 -1.01779  0.15231
  0.91178  1.43560  0.45842  0.08514 -0.30926 -0.44935 -0.25988 -0.05601
  0.17976  0.55827 -0.34578 -0.27097  0.25407  1.08656  1.80718  1.95109
  1.58890  0.72912 -0.40442 -1.34979 -1.91684 -1.87165 -0.98156  0.28439
  0.89099  0.90274  0.79523  0.40138  0.02081  0.00907  0.23280  0.31097
 -0.44608 -0.50159 -0.63851 -0.46568  0.06284  0.89854  2.27207  2.66185
  2.06789  0.75765 -0.37406 -1.13229 -1.70425 -1.63652 -0.60650  0.74288
  0.97450  0.83959  0.77625  0.54584  0.23025  0.14501  0.19838  0.06330
 -1.11297 -1.28309 -1.07056 -0.72163 -0.11182  1.28275  1.90578  2.41469
  1.97238  0.84092  0.11079 -0.94101 -1.15465 -0.94939  0.64316  0.56647
  0.70355  0.74958  1.63039  0.63838  0.25608  0.41040 -0.50836 -0.80252
 -1.72473 -1.92912 -1.10012 -1.05519 -0.10274  0.90677  2.05671  2.58075
  2.16667  1.05344  0.03573 -0.05773 -0.58287 -1.40318 -1.58072 -0.87231
  0.01980  0.51998  0.63491  0.37020 -0.25344 -0.90749 -1.16574 -1.34771
%FLAG CMAP_PARAMETER_04                                                         
%COMMENT  Leu CMAP                                                              
%FORMAT(8F9.5)                                                                  
 -0.86694 -0.26821  0.11903  0.36257  0.95573  1.67477  2.43156  2.60365
  2.27204  1.80613  1.46886  1.61233 -0.96663 -1.49770 -1.08239 -0.09973
  0.68400  0.98069  0.74771  0.20585 -0.44627 -0.94569 -1.07455 -1.03710
 -0.32646  0.18654  0.61372  0.67096  1.01304  1.68958  2.59064  2.69380
  2.62711  2.28315  1.55874 -0.12149 -1.21885 -1.44423 -0.97001 -0.05369
  0.80796  1.12834  0.84158  0.41540 -0.05618 -0.48333 -0.57243 -0.49018
 -0.00270  0.44349  0.67720  0.69907  0.96098  1.51827  2.31922  2.59766
  2.46815  2.10040  1.01494 -0.35138 -1.06078 -0.51379 -0.69064  0.13405
  0.94764  1.25044  1.05896  0.70807  1.27955  0.00478 -0.14861 -0.13199
  0.46773  1.06122  0.84151  0.87321  1.53577  2.26717  2.28379  2.61533
  2.48323  2.10062  0.99888 -0.16216 -0.70927 -0.70653 -0.29305  0.40855
  1.21244  1.57878  1.45953  1.15294  0.73992  0.44830  0.51887  0.42642
  1.08264  1.22032  1.01432  0.92883  1.19777  1.89909  2.63517  2.91989
  2.71483  2.15712  1.13870  0.10970 -0.35319 -0.45575 -0.07314  0.71696
  1.39933  1.70190  1.76612  1.54603  1.28907  0.96167  1.05593  0.99887
  1.28886  1.08719  1.25509  0.61945  1.07490  1.93759  3.19207  3.05501
  2.85024  2.25228  1.28855  0.30319 -0.32580 -0.33934  0.94330  1.01391
  1.36742  1.55398  1.68291  1.69903  1.58878  1.35670  1.38167  1.38984
  0.98482  0.77092  0.58293  0.75254  1.33157  2.19094  2.97361  3.31530
  2.98261  2.34181  1.68188  0.20860 -0.18920  0.15129  0.97347  1.18438
  1.41087  2.18263  1.74084  1.83977  2.49337  1.40782  1.29872  1.23230
  0.48495  0.51375  0.72118  1.16071  2.03516  2.76085  3.33781  3.33714
  3.21881  1.91348  0.71654 -0.06047  0.05722  0.95499  1.57463  1.97846
  2.20669  2.25753  2.16240  2.05082  1.46338  0.92763  0.63950  0.52464
  0.07954  0.44680  1.02424  2.02016  2.99245  3.73027  3.90871  3.36270
  2.34980  1.21384  0.31676  0.22259  0.86998  1.74017  2.65575  2.56314
  2.94846  3.04800  2.92362  2.53858  1.53008  0.44000  0.00000 -0.00769
  0.24993  1.09492  2.17567  3.43132  4.50566  5.05694  4.64546  3.50848
  2.15393  1.27464  0.97041  1.34987  2.11323  2.30548  2.56683  3.12183
  3.71616  4.15639  4.02019  3.11381  1.50702  0.51912 -0.20195 -0.08615
  1.52978  2.82371  4.12062  5.09490  6.15608  6.08176  5.03421  3.52597
  2.34959  2.18514  2.44731  2.85399  2.64346  2.42082  2.71715  3.68263
  4.79352  5.66725  5.08137  3.19151  1.34349  0.25042  0.36715  0.82954
  3.49877  5.10429  4.80281  4.54651  4.68704  4.66098  4.37663  3.68363
  3.39535  3.95518  3.96235  2.85930  2.21248  2.20453  2.53736  4.31396
  5.52110  4.69616  3.78755  2.61424  1.52261  1.35018  1.75048  2.53707
  5.65682  4.15269  3.35229  3.00261  3.08500  3.54523  4.16460  4.62833
  5.13779  5.01177  3.02054  1.47096  1.36914  1.36431  2.92161  6.08683
  3.79124  3.26901  3.87628  3.15138  2.56586  2.96443  3.52026  4.83005
  4.54702  3.10593  2.16146  1.79107  2.10872  3.47796  4.87594  5.92625
  6.01846  4.12483  2.27314  1.85210  1.40705  2.31574  3.63083  3.28348
  2.48395  2.41514  2.93210  3.56664  3.83230  4.13078  4.61915  5.21000
  2.54403  1.68952  0.97521  0.88413  2.02670  4.01998  5.83129  6.49399
  5.45501  4.03342  2.72981  3.04219  2.43764  2.97586  2.73313  1.73379
  1.55615  2.30112  3.86657  4.36600  4.57747  4.78312  4.62251  3.65331
  1.39094  0.80730  0.29380  0.53655  2.14327  4.35364  5.64162  5.52871
  4.81227  3.89474  3.02138  2.56961  2.36903  1.91970  1.04584  0.61644
  1.26738  2.48009  3.51320  4.14947  3.98350  3.59513  2.95805  2.05137
  0.59467  0.26702 -0.00118  0.34338  1.95569  3.71282  4.31538  4.26902
  3.93382  3.80334  2.45012  1.80769  1.23485  0.28708 -0.16539  0.11408
  1.10892  2.16939  3.27563  2.90643  2.66635  2.32593  1.63311  1.04332
 -0.00101 -0.07278 -0.15248  0.39936  1.35477  2.58696  2.88424  2.91922
  2.69118  2.08752  1.30318  0.53921 -0.47040 -1.05688 -0.84349  0.07495
  1.13508  1.90971  1.60384  1.52061  1.19284  0.82628  0.49692  0.18749
  0.52653 -0.01117  0.01170  0.35019  0.99208  1.68051  1.85145  1.71415
  1.38754  0.91039  0.24804 -0.73699 -1.51069 -1.53963 -0.72203  0.43100
  1.18026  1.23810  0.97321  0.69525  0.29409 -0.04217 -0.12688 -0.18077
  0.41738  0.42830  0.25395  0.41670  0.84705  1.54378  1.90242  1.75429
  1.39459  0.87970 -0.19758 -1.19662 -1.65765 -1.41581 -0.57110  0.57555
  1.30161  1.37911  1.15311  0.73096  0.18428  0.11942  0.12025  0.23185
  0.51056  0.47767  0.30339  0.39748  0.84570  1.55327  2.29045  2.38960
  1.92281  1.05703  0.33844 -0.94589 -1.40734 -1.22267 -0.28396  0.91594
  1.42889  1.47580  1.35177  1.37396  0.53214  0.53898  0.61490  0.64450
 -0.24761 -0.32226 -0.19849 -0.08985  1.01997  1.40580  2.20658  2.50290
  1.91878  0.83859 -0.21275 -0.98048 -1.44651 -1.19821  0.00869  1.25483
  1.43243  1.66446  1.63593  0.87150  0.53192  0.38847  0.31803  0.05867
 -0.50737 -1.45363 -0.79190  0.11592  0.23743  1.27007  2.22830  3.43018
  2.03991  0.82982 -0.28204 -0.30716 -1.28098 -0.47386  0.89069  1.08272
  1.18900  1.30124  1.20693  0.90441  0.47681 -0.17330 -0.62574 -1.08723
 -1.62255 -1.96136 -0.83933 -0.65406  0.11828  1.42624  2.54120  2.90447
  2.24826  1.86505 -0.18930 -0.85728 -0.87693 -1.06001 -1.16287  0.46816
  0.39155  1.80618  1.14253  0.79781  0.04909 -0.40498 -1.27362 -1.36635
%FLAG CMAP_INDEX                                                                
%FORMAT(6I8)                                                                    
       5       7       9      29      31       4
      29      31      33      39      41       2
      39      41      43      46      48       1
      46      48      50      53      55       1
      53      55      57      75      77       3
      75      77      79      85      87       2
