ACE
    89
   2.0000010   1.0000000  -0.0000013   2.0000010   2.0900000   0.0000001
   1.4862640   2.4538490   0.8898240   1.4862590   2.4538520  -0.8898200
   3.4274200   2.6407950  -0.0000030   4.3905800   1.8774060  -0.0000066
   3.5553754   3.9696488  -0.0000031   2.7331200   4.5561601  -0.0000013
   4.8532621   4.6139253  -0.0000043   5.4075960   4.3155388   0.8898152
   5.6613044   4.2208425  -1.2321480   5.8085401   3.1408724  -1.2413850
   5.1232615   4.5213630  -2.1312016   7.0335311   4.8446890  -1.3210917
   7.9385507   4.6673289  -2.2932451   7.7129317   4.0127179  -3.1350766
   9.0810227   5.4558172  -1.9498126   9.9294776   5.5267948  -2.4931227
   8.8495286   6.0712204  -0.8167679   9.6965218   6.9410328  -0.1196083
  10.6841190   7.1751010  -0.5170533   9.1944817   7.4579622   1.0690203
   9.7993286   8.1419440   1.6643598   7.9605894   7.1265313   1.5050983
   7.5831191   7.5415318   2.4396517   7.1248242   6.2479149   0.7856326
   6.1340390   6.0025947   1.1680766   7.6304723   5.7272645  -0.4115490
   4.7126759   6.1294185   0.0000014   3.6006445   6.6527027   0.0000062
   5.8460533   6.8348833   0.0000025   6.7370014   6.3591620  -0.0000004
   5.8460551   8.2838837   0.0000062   5.3323107   8.6477361  -0.8898125
   5.1346832   8.8328770   1.2321510   5.6430955   8.4845655   2.1312039
   5.1499009   9.9224522   1.2057956   4.1018746   8.4845664   1.2413877
   7.2660104   8.8317987   0.0000011   8.2291696   8.0684085  -0.0000053
   7.3939658  10.1606525   0.0000022   6.5717105  10.7471638   0.0000063
   8.6918525  10.8049290  -0.0000006   9.2461881  10.5065415   0.8898174
   9.2461803  10.5065502  -0.8898266   8.5327613  12.3185912   0.0000072
   7.4144199  12.8282515   0.0000147   9.6574351  13.0378504   0.0000071
  10.5541288  12.5730497   0.0000020   9.6397337  14.4867427   0.0000126
   9.1215807  14.8442923  -0.8898048   9.1215924  14.8442863   0.8898392
  11.0596888  15.0346576   0.0000054  12.0228491  14.2712681  -0.0000037
  11.1876442  16.3635114   0.0000078  10.3653889  16.9500227   0.0000142
  12.4855309  17.0077879   0.0000033  13.0398681  16.7093993   0.8898199
  13.2935685  16.6147080  -1.2321444  13.4408043  15.5347378  -1.2413845
  12.7555223  16.9152306  -2.1311952  14.6493335  17.3119273  -1.1945815
  14.5029108  18.3920124  -1.1857884  15.1881948  17.0115187  -0.2959797
  15.4573711  16.9188494  -2.4267300  15.6046058  15.8388792  -2.4359722
  14.9193249  17.2193739  -3.3257799  16.8131371  17.6160677  -2.3891652
  16.6667154  18.6961528  -2.3803710  17.3519973  17.3156561  -1.4905653
  17.5920309  17.2371677  -3.5768765  17.0930849  17.5158340  -4.4096416
  18.4899485  17.6989305  -3.5519976  17.7281867  16.2364205  -3.5849913
  12.3449447  18.5232811   0.0000131  11.2329133  19.0465653   0.0000233
  13.4783221  19.2287459   0.0000115  14.3692702  18.7530245   0.0000042
  13.4783239  20.6777463   0.0000186  12.9645762  21.0416008  -0.8897974
  12.7669567  21.2267367   1.2321673  13.2753723  20.8784231   2.1312175
  12.7821742  22.3163120   1.2058144  11.7341481  20.8784261   1.2414071
  14.8982792  21.2256613   0.0000093  15.8614384  20.4622711  -0.0000024
  15.0262346  22.5545151   0.0000131  14.2039782  23.1410272   0.0000217
  15.9452954  22.9733552   0.0000085
