%VERSION  VERSION_STAMP = V0001.000  DATE = 07/10/26  10:54:25                  
%FLAG TITLE                                                                     
%FORMAT(20a4)                                                                   
MOL                                                                             
%FLAG POINTERS                                                                  
%FORMAT(10I8)                                                                   
      77       8      40      42      95      57     162     102       0       0
     454       1      42      57     102      10      19      16       8       0
       0       0       0       0       0       0       0       0      77       0
       0
%FLAG ATOM_NAME                                                                 
%FORMAT(20a4)                                                                   
C1  C2  C3  C4  C5  N1  C6  C7  C8  C9  C10 C11 C12 N2  C13 C14 C15 N3  C16 C17 
C18 C19 C20 C21 C22 C23 C24 C25 C26 C27 N4  C28 C29 C30 C31 C32 C33 H1  H2  H3  
H4  H5  H6  H7  H8  H9  H10 H11 H12 H13 H14 H15 H16 H17 H18 H19 H20 H21 H22 H23 
H24 H25 H26 H27 H28 H29 H30 H31 H32 H33 H34 H35 H36 H37 H38 H39 H40 
%FLAG CHARGE                                                                    
%FORMAT(5E16.8)                                                                 
 -2.24134290E+00 -2.44178820E+00 -2.03178645E+00 -2.88459009E+00  2.58938883E+00
 -1.31127671E+01  3.12147999E+00 -1.82040777E+00 -1.37396142E+00 -1.42862832E+00
 -1.37396142E+00 -1.82040777E+00  3.12147999E+00 -1.31127671E+01  2.58938883E+00
 -3.82850523E+00  8.22919068E+00 -1.24184975E+01  7.43652063E+00 -3.11236884E+00
 -2.24134290E+00 -2.44178820E+00 -2.03178645E+00 -2.88459009E+00 -2.42721036E+00
 -1.44685062E+00 -1.41040602E+00 -4.75602030E-01 -3.82850523E+00  8.22919068E+00
 -1.24184975E+01  7.43652063E+00 -3.11236884E+00 -2.42721036E+00 -1.44685062E+00
 -1.41040602E+00 -4.75602030E-01  2.46001050E+00  2.45089935E+00  2.47823280E+00
  6.94816299E+00  8.69203710E-01  8.69203710E-01  8.46425835E-01  8.46425835E-01
  8.00870085E-01  8.00870085E-01  7.14314160E-01  7.14314160E-01  8.00870085E-01
  8.00870085E-01  8.46425835E-01  8.46425835E-01  8.69203710E-01  8.69203710E-01
  6.94816299E+00  2.71512270E+00  2.46001050E+00  2.45089935E+00  2.47823280E+00
  1.17898281E+00  1.17898281E+00  8.60092560E-01  8.60092560E-01  7.91758935E-01
  7.91758935E-01  9.51204060E-01  9.51204060E-01  2.71512270E+00  1.17898281E+00
  1.17898281E+00  8.60092560E-01  8.60092560E-01  7.91758935E-01  7.91758935E-01
  9.51204060E-01  9.51204060E-01
%FLAG ATOMIC_NUMBER                                                             
%FORMAT(10I8)                                                                   
       6       6       6       6       6       7       6       6       6       6
       6       6       6       7       6       6       6       7       6       6
       6       6       6       6       6       6       6       6       6       6
       7       6       6       6       6       6       6       1       1       1
       1       1       1       1       1       1       1       1       1       1
       1       1       1       1       1       1       1       1       1       1
       1       1       1       1       1       1       1       1       1       1
       1       1       1       1       1       1       1
%FLAG MASS                                                                      
%FORMAT(5E16.8)                                                                 
  1.20100000E+01  1.20100000E+01  1.20100000E+01  1.20100000E+01  1.20100000E+01
  1.40100000E+01  1.20100000E+01  1.20100000E+01  1.20100000E+01  1.20100000E+01
  1.20100000E+01  1.20100000E+01  1.20100000E+01  1.40100000E+01  1.20100000E+01
  1.20100000E+01  1.20100000E+01  1.40100000E+01  1.20100000E+01  1.20100000E+01
  1.20100000E+01  1.20100000E+01  1.20100000E+01  1.20100000E+01  1.20100000E+01
  1.20100000E+01  1.20100000E+01  1.20100000E+01  1.20100000E+01  1.20100000E+01
  1.40100000E+01  1.20100000E+01  1.20100000E+01  1.20100000E+01  1.20100000E+01
  1.20100000E+01  1.20100000E+01  1.00800000E+00  1.00800000E+00  1.00800000E+00
  1.00800000E+00  1.00800000E+00  1.00800000E+00  1.00800000E+00  1.00800000E+00
  1.00800000E+00  1.00800000E+00  1.00800000E+00  1.00800000E+00  1.00800000E+00
  1.00800000E+00  1.00800000E+00  1.00800000E+00  1.00800000E+00  1.00800000E+00
  1.00800000E+00  1.00800000E+00  1.00800000E+00  1.00800000E+00  1.00800000E+00
  1.00800000E+00  1.00800000E+00  1.00800000E+00  1.00800000E+00  1.00800000E+00
  1.00800000E+00  1.00800000E+00  1.00800000E+00  1.00800000E+00  1.00800000E+00
  1.00800000E+00  1.00800000E+00  1.00800000E+00  1.00800000E+00  1.00800000E+00
  1.00800000E+00  1.00800000E+00
%FLAG ATOM_TYPE_INDEX                                                           
%FORMAT(10I8)                                                                   
       1       1       1       1       1       2       3       3       3       3
       3       3       3       2       1       1       1       4       1       1
       1       1       1       1       3       3       3       3       1       1
       4       1       1       3       3       3       3       5       5       5
       6       7       7       8       8       8       8       8       8       8
       8       8       8       7       7       6       5       5       5       5
       8       8       8       8       8       8       8       8       5       8
       8       8       8       8       8       8       8
%FLAG NUMBER_EXCLUDED_ATOMS                                                     
%FORMAT(10I8)                                                                   
      10       9      10      13      17      12      11      12      13      13
      13      12      11      12      17      16      14      11       9       7
       7       6       4       5       9      10       9       6      14      13
       8       5       3       9      10       9       6       2       1       1
       2       3       2       3       2       3       2       3       2       3
       2       3       2       2       1       1       1       1       1       1
       3       2       3       2       3       2       1       1       1       3
       2       3       2       3       2       1       1
%FLAG NONBONDED_PARM_INDEX                                                      
%FORMAT(10I8)                                                                   
       1       2       4       7      11      16      22      29       2       3
       5       8      12      17      23      30       4       5       6       9
      13      18      24      31       7       8       9      10      14      19
      25      32      11      12      13      14      15      20      26      33
      16      17      18      19      20      21      27      34      22      23
      24      25      26      27      28      35      29      30      31      32
      33      34      35      36
%FLAG RESIDUE_LABEL                                                             
%FORMAT(20a4)                                                                   
MOL 
%FLAG RESIDUE_POINTER                                                           
%FORMAT(10I8)                                                                   
       1
%FLAG BOND_FORCE_CONSTANT                                                       
%FORMAT(5E16.8)                                                                 
  3.78600000E+02  3.95700000E+02  3.47100000E+02  2.61800000E+02  5.29500000E+02
  2.32500000E+02  3.75900000E+02  3.75900000E+02  2.50300000E+02  4.14200000E+02
%FLAG BOND_EQUIL_VALUE                                                          
%FORMAT(5E16.8)                                                                 
  1.39800000E+00  1.08600000E+00  1.38600000E+00  1.46400000E+00  1.01200000E+00
  1.53800000E+00  1.09700000E+00  1.09700000E+00  1.51600000E+00  1.33900000E+00
%FLAG ANGLE_FORCE_CONSTANT                                                      
%FORMAT(5E16.8)                                                                 
  6.88000000E+01  4.87000000E+01  8.62000000E+01  8.68000000E+01  6.52000000E+01
  4.88000000E+01  6.56000000E+01  8.35000000E+01  6.12000000E+01  4.64000000E+01
  6.49000000E+01  4.68000000E+01  4.69000000E+01  6.52000000E+01  4.73000000E+01
  7.04000000E+01  8.49000000E+01  3.88000000E+01  3.90000000E+01
%FLAG ANGLE_EQUIL_VALUE                                                         
%FORMAT(5E16.8)                                                                 
  2.09474507E+00  2.09230160E+00  2.11097664E+00  2.14570870E+00  2.09404693E+00
  2.02580453E+00  2.10783504E+00  1.92789152E+00  1.91619781E+00  2.02440827E+00
  1.94621748E+00  1.91637234E+00  1.91218355E+00  1.95599133E+00  1.92806605E+00
  2.04587583E+00  2.03645104E+00  1.89298492E+00  1.87762601E+00
%FLAG DIHEDRAL_FORCE_CONSTANT                                                   
%FORMAT(5E16.8)                                                                 
  3.62500000E+00  5.50000000E-01  1.05000000E+00  4.80000000E+00  0.00000000E+00
  3.32000000E-01  2.45000000E-01  0.00000000E+00  2.10000000E-01  1.55555556E-01
  1.10000000E-01  2.90000000E-01  1.30000000E-01  8.00000000E-02  1.20000000E-01
  1.10000000E+00
%FLAG DIHEDRAL_PERIODICITY                                                      
%FORMAT(5E16.8)                                                                 
  2.00000000E+00  2.00000000E+00  2.00000000E+00  2.00000000E+00  2.00000000E+00
  2.00000000E+00  2.00000000E+00  2.00000000E+00  3.00000000E+00  3.00000000E+00
  1.00000000E+00  2.00000000E+00  3.00000000E+00  3.00000000E+00  3.00000000E+00
  2.00000000E+00
%FLAG DIHEDRAL_PHASE                                                            
%FORMAT(5E16.8)                                                                 
  3.14159400E+00  3.14159400E+00  3.14159400E+00  3.14159400E+00  0.00000000E+00
  0.00000000E+00  3.14159400E+00  3.14159400E+00  0.00000000E+00  0.00000000E+00
  0.00000000E+00  3.14159400E+00  0.00000000E+00  0.00000000E+00  0.00000000E+00
  3.14159400E+00
%FLAG SCEE_SCALE_FACTOR                                                         
%FORMAT(5E16.8)                                                                 
  1.20000000E+00  1.20000000E+00  1.20000000E+00  1.20000000E+00  1.20000000E+00
  1.20000000E+00  1.20000000E+00  1.20000000E+00  1.20000000E+00  1.20000000E+00
  1.20000000E+00  1.20000000E+00  1.20000000E+00  1.20000000E+00  1.20000000E+00
  0.00000000E+00
%FLAG SCNB_SCALE_FACTOR                                                         
%FORMAT(5E16.8)                                                                 
  2.00000000E+00  2.00000000E+00  2.00000000E+00  2.00000000E+00  2.00000000E+00
  2.00000000E+00  2.00000000E+00  2.00000000E+00  2.00000000E+00  2.00000000E+00
  2.00000000E+00  2.00000000E+00  2.00000000E+00  2.00000000E+00  2.00000000E+00
  0.00000000E+00
%FLAG SOLTY                                                                     
%FORMAT(5E16.8)                                                                 
  0.00000000E+00  0.00000000E+00  0.00000000E+00  0.00000000E+00  0.00000000E+00
  0.00000000E+00  0.00000000E+00  0.00000000E+00
%FLAG LENNARD_JONES_ACOEF                                                       
%FORMAT(5E16.8)                                                                 
  6.96551276E+05  8.15700858E+05  9.54886922E+05  8.43969952E+05  9.89136215E+05
  1.02073671E+06  7.69642101E+05  9.01905150E+05  9.31115275E+05  8.49322032E+05
  7.52549148E+04  8.74566229E+04  9.27554496E+04  8.43518904E+04  6.90855956E+03
  1.71458823E+03  1.94284817E+03  2.23577481E+03  2.01475241E+03  9.04434904E+01
  1.34728399E-01  5.63013422E+04  6.52595638E+04  6.97998263E+04  6.34160397E+04
  4.88692384E+03  5.24570081E+01  3.39005767E+03  8.12662403E+04  9.44129241E+04
  1.00235148E+05  9.11435380E+04  7.41026906E+03  9.47421632E+01  5.22955465E+03
  7.94617769E+03
%FLAG LENNARD_JONES_BCOEF                                                       
%FORMAT(5E16.8)                                                                 
  5.24668528E+02  6.34916791E+02  7.68192761E+02  5.90251928E+02  7.14570130E+02
  6.63431737E+02  5.44830041E+02  6.59538202E+02  6.12468585E+02  5.65406768E+02
  1.09570372E+02  1.32088478E+02  1.24325688E+02  1.14599119E+02  2.10929191E+01
  1.46824710E+01  1.74775900E+01  1.71355763E+01  1.57231024E+01  2.14252117E+00
  7.34107347E-02  1.01040256E+02  1.21646616E+02  1.14981426E+02  1.05935811E+02
  1.89134207E+01  1.73959275E+00  1.67944276E+01  1.21392023E+02  1.46316625E+02
  1.37787728E+02  1.27000718E+02  2.32899892E+01  2.33785449E+00  2.08590256E+01
  2.57122925E+01
%FLAG BONDS_INC_HYDROGEN                                                        
%FORMAT(10I8)                                                                   
       0     111       2       3     114       2       6     117       2      15
     120       5      18     123       7      18     126       7      21     129
       8      21     132       8      24     135       8      24     138       8
      27     141       8      27     144       8      30     147       8      30
     150       8      33     153       8      33     156       8      36     159
       7      36     162       7      39     165       5      57     168       2
      60     171       2      63     174       2      66     177       2      72
     180       8      72     183       8      75     186       8      75     189
       8      78     192       8      78     195       8      81     198       8
      81     201       8      96     204       2      99     207       8      99
     210       8     102     213       8     102     216       8     105     219
       8     105     222       8     108     225       8     108     228       8
%FLAG BONDS_WITHOUT_HYDROGEN                                                    
%FORMAT(10I8)                                                                   
       0       3       1       0      96       1       3       6       1       6
       9       1       9      12       1       9      93       1      12      15
       3      12      84       1      15      18       4      18      21       6
      21      24       6      24      27       6      27      30       6      30
      33       6      33      36       6      36      39       4      39      42
       3      42      45       1      42      69       1      45      48       1
      45      81       9      48      51      10      48      72       9      51
      54      10      54      57       1      54      69       1      57      60
       1      60      63       1      63      66       1      66      69       1
      72      75       6      75      78       6      78      81       6      84
      87       1      84     108       9      87      90      10      87      99
       9      90      93      10      93      96       1      99     102       6
     102     105       6     105     108       6
%FLAG ANGLES_INC_HYDROGEN                                                       
%FORMAT(10I8)                                                                   
       0       3     114       2       0      96     204       2       3       0
     111       2       3       6     117       2       6       3     114       2
       9       6     117       2      12      15     120       6      15      18
     123       9      15      18     126       9      18      15     120      10
      18      21     129      12      18      21     132      12      21      18
     123      13      21      18     126      13      21      24     135      12
      21      24     138      12      24      21     129      12      24      21
     132      12      24      27     141      12      24      27     144      12
      27      24     135      12      27      24     138      12      27      30
     147      12      27      30     150      12      30      27     141      12
      30      27     144      12      30      33     153      12      30      33
     156      12      33      30     147      12      33      30     150      12
      33      36     159      13      33      36     162      13      36      33
     153      12      36      33     156      12      36      39     165      10
      39      36     159       9      39      36     162       9      42      39
     165       6      45      81     198      15      45      81     201      15
      48      72     180      15      48      72     183      15      54      57
     168       2      57      60     171       2      60      57     168       2
      60      63     174       2      63      60     171       2      63      66
     177       2      66      63     174       2      69      66     177       2
      72      75     186      12      72      75     189      12      75      72
     180      12      75      72     183      12      75      78     192      12
      75      78     195      12      78      75     186      12      78      75
     189      12      78      81     198      12      78      81     201      12
      81      78     192      12      81      78     195      12      84     108
     225      15      84     108     228      15      87      99     207      15
      87      99     210      15      93      96     204       2      96       0
     111       2      99     102     213      12      99     102     216      12
     102      99     207      12     102      99     210      12     102     105
     219      12     102     105     222      12     105     102     213      12
     105     102     216      12     105     108     225      12     105     108
     228      12     108     105     219      12     108     105     222      12
     123      18     126      18     129      21     132      19     135      24
     138      19     141      27     144      19     147      30     150      19
     153      33     156      19     159      36     162      18     180      72
     183      19     186      75     189      19     192      78     195      19
     198      81     201      19     207      99     210      19     213     102
     216      19     219     105     222      19     225     108     228      19
%FLAG ANGLES_WITHOUT_HYDROGEN                                                   
%FORMAT(10I8)                                                                   
       0       3       6       1       0      96      93       1       3       0
      96       1       3       6       9       1       6       9      12       1
       6       9      93       1       9      12      15       3       9      12
      84       1       9      93      90       4       9      93      96       1
      12       9      93       1      12      15      18       5      12      84
      87       1      12      84     108       7      15      12      84       3
      15      18      21       8      18      21      24      11      21      24
      27      11      24      27      30      11      27      30      33      11
      30      33      36      11      33      36      39       8      36      39
      42       5      39      42      45       3      39      42      69       3
      42      45      48       1      42      45      81       7      42      69
      66       1      42      69      54       1      45      42      69       1
      45      48      51       4      45      48      72       7      45      81
      78      14      48      45      81       7      48      51      54      16
      48      72      75      14      51      48      72      17      51      54
      57       4      51      54      69       4      54      57      60       1
      54      69      66       1      57      54      69       1      57      60
      63       1      60      63      66       1      63      66      69       1
      72      75      78      11      75      78      81      11      84      87
      90       4      84      87      99       7      84     108     105      14
      87      84     108       7      87      90      93      16      87      99
     102      14      90      87      99      17      90      93      96       4
      99     102     105      11     102     105     108      11
%FLAG DIHEDRALS_INC_HYDROGEN                                                    
%FORMAT(10I8)                                                                   
       0       3       6     117       1       3       0      96     204       1
     111       0       3       6       1       9       6       3     114       1
       9      12      15     120       3       9      93      96     204       1
      12       9       6     117       1      12      15      18     123       6
      12      15      18     126       6      12      84     108     225       8
      12      84     108     228       8      15      18      21     129      10
      15      18      21     132      10      18      21      24     135      14
      18      21      24     138      14      21      18      15     120       5
      21      24      27     141      14      21      24      27     144      14
      24      21      18     123      10      24      21      18     126      10
      24      27      30     147      14      24      27      30     150      14
      27      24      21     129      14      27      24      21     132      14
      27      30      33     153      14      27      30      33     156      14
      30      27      24     135      14      30      27      24     138      14
      30      33      36     159      10      30      33      36     162      10
      33      30      27     141      14      33      30      27     144      14
      33      36      39     165       5      36      33      30     147      14
      36      33      30     150      14      39      36      33     153      10
      39      36      33     156      10      42      39      36     159       6
      42      39      36     162       6      42      45      81     198       8
      42      45      81     201       8      42      69      66     177       1
      45      42      39     165       3      45      48      72     180       8
      45      48      72     183       8      45      81      78     192      10
      45      81      78     195      10      48      45      81     198       8
      48      45      81     201       8      48      72      75     186      10
      48      72      75     189      10      51      48      72     180       5
      51      48      72     183       5      51      54      57     168       1
      54      57      60     171       1      54      69      66     177       1
      57      60      63     174       1      60      63      66     177       1
      63      60      57     168       1      66      63      60     171       1
      69      66      63     174       1      69      42      39     165       3
      69      54      57     168       1      72      75      78     192      14
      72      75      78     195      14      75      78      81     198      14
      75      78      81     201      14      78      75      72     180      14
      78      75      72     183      14      81      78      75     186      14
      81      78      75     189      14      84      12      15     120       3
      84      87      99     207       8      84      87      99     210       8
      84     108     105     219      10      84     108     105     222      10
      87      84     108     225       8      87      84     108     228       8
      87      99     102     213      10      87      99     102     216      10
      90      87      99     207       5      90      87      99     210       5
      90      93      96     204       1     111       0      96      93       1
      93       9       6     117       1      96       0       3     114       1
      99     102     105     219      14      99     102     105     222      14
     102     105     108     225      14     102     105     108     228      14
     105     102      99     207      14     105     102      99     210      14
     108     105     102     213      14     108     105     102     216      14
     111       0       3     114       1     111       0      96     204       1
     114       3       6     117       1     120      15      18     123       5
     120      15      18     126       5     123      18      21     129      10
     123      18      21     132      10     126      18      21     129      10
     126      18      21     132      10     129      21      24     135      15
     129      21      24     138      15     132      21      24     135      15
     132      21      24     138      15     135      24      27     141      15
     135      24      27     144      15     138      24      27     141      15
     138      24      27     144      15     141      27      30     147      15
     141      27      30     150      15     144      27      30     147      15
     144      27      30     150      15     147      30      33     153      15
     147      30      33     156      15     150      30      33     153      15
     150      30      33     156      15     153      33      36     159      10
     153      33      36     162      10     156      33      36     159      10
     156      33      36     162      10     159      36      39     165       5
     162      36      39     165       5     168      57      60     171       1
     171      60      63     174       1     174      63      66     177       1
     180      72      75     186      15     180      72      75     189      15
     183      72      75     186      15     183      72      75     189      15
     186      75      78     192      15     186      75      78     195      15
     189      75      78     192      15     189      75      78     195      15
     192      78      81     198      15     192      78      81     201      15
     195      78      81     198      15     195      78      81     201      15
     207      99     102     213      15     207      99     102     216      15
     210      99     102     213      15     210      99     102     216      15
     213     102     105     219      15     213     102     105     222      15
     216     102     105     219      15     216     102     105     222      15
     219     105     108     225      15     219     105     108     228      15
     222     105     108     225      15     222     105     108     228      15
     111       0     -96      -3      16       0       6      -3    -114      16
       3       9      -6    -117      16      18      12     -15    -120      16
      36      42     -39    -165      16      54      60     -57    -168      16
      57      63     -60    -171      16      60      66     -63    -174      16
      63      69     -66    -177      16       0      93     -96    -204      16
%FLAG DIHEDRALS_WITHOUT_HYDROGEN                                                
%FORMAT(10I8)                                                                   
       0       3       6       9       1       0      96      93      90       1
       0      96     -93       9       1       3       0      96      93       1
       3       6       9      12       1       3       6      -9      93       1
      96       0       3       6       1       6       9      12      15       1
       6       9      12      84       1       6       9      93      90       1
       6       9     -93      96       1       9      12      15      18       2
       9      12      84      87       1       9      12      84     108       1
       9      93     -90      87       4      12       9      93      90       1
      12       9      93      96       1      12      15      18      21       5
      12      84     -87      90       1      12      84      87      99       1
      12      84     108     105       7      15      12       9      93       1
      15      12      84      87       1      15      12      84     108       1
      15      18      21      24       9      18      15      12      84       2
      18      21      24      27      11      18      21     -24      27      12
      18      21     -24      27      13      21      24      27      30      11
      21      24     -27      30      12      21      24     -27      30      13
      24      27      30      33      11      24      27     -30      33      12
      24      27     -30      33      13      27      30      33      36      11
      27      30     -33      36      12      27      30     -33      36      13
      30      33      36      39       9      33      36      39      42       5
      36      39      42      45       2      36      39      42      69       2
      39      42      45      48       1      39      42      45      81       1
      39      42      69      66       1      39      42      69      54       1
      42      45      48      51       1      42      45      48      72       1
      42      45      81      78       7      42      69      66      63       1
      42      69     -54      51       1      42      69      54      57       1
      45      42      69      66       1      45      42      69      54       1
      45      48     -51      54       4      45      48      72      75       7
      45      81     -78      75      10      48      45      42      69       1
      48      45      81      78       7      48      51      54      57       4
      48      51     -54      69       4      48      72     -75      78      10
      51      48      45      81       1      51      48      72      75       5
      51      54      57      60       1      51      54      69      66       1
      54      51      48      72       4      54      57      60      63       1
      54      69     -66      63       1      57      54      69      66       1
      57      60     -63      66       1      60      57      54      69       1
      60      63     -66      69       1      69      42      45      81       1
      72      48      45      81       1      72      75     -78      81      11
      72      75     -78      81      12      72      75     -78      81      13
      84      12       9      93       1      84      87     -90      93       4
      84      87      99     102       7      84     108    -105     102      10
      87      84     108     105       7      87      90      93      96       4
      87      99    -102     105      10      90      87      84     108       1
      90      87      99     102       5      93      90      87      99       4
      99      87      84     108       1      99     102    -105     108      11
      99     102    -105     108      12      99     102    -105     108      13
       6      12      -9     -93      16       9      84     -12     -15      16
      45      69     -42     -39      16      42      48     -45     -81      16
      72      45     -48     -51      16      57      69     -54     -51      16
      42      54     -69     -66      16     108      12     -84     -87      16
      99      84     -87     -90      16       9      96     -93     -90      16
%FLAG EXCLUDED_ATOMS_LIST                                                       
%FORMAT(10I8)                                                                   
       2       3       4      31      32      33      38      39      40      69
       3       4       5      32      33      38      39      40      69       4
       5       6      29      31      32      33      38      39      40       5
       6       7      29      30      31      32      33      37      39      40
      41      69       6       7       8      29      30      31      32      33
      34      36      37      40      41      42      43      76      77       7
       8       9      29      30      32      37      41      42      43      44
      45       8       9      10      29      41      42      43      44      45
      46      47       9      10      11      41      42      43      44      45
      46      47      48      49      10      11      12      42      43      44
      45      46      47      48      49      50      51      11      12      13
      44      45      46      47      48      49      50      51      52      53
      12      13      14      46      47      48      49      50      51      52
      53      54      55      13      14      15      48      49      50      51
      52      53      54      55      56      14      15      16      24      50
      51      52      53      54      55      56      15      16      17      19
      23      24      28      52      53      54      55      56      16      17
      18      19      20      22      23      24      25      27      28      54
      55      56      60      67      68      17      18      19      23      24
      25      26      27      28      56      61      62      65      66      67
      68      18      19      20      24      25      26      27      28      61
      62      63      64      67      68      19      20      21      23      24
      25      26      28      57      61      62      20      21      22      23
      24      25      57      58      60      21      22      23      24      57
      58      59      22      23      24      57      58      59      60      23
      24      57      58      59      60      24      58      59      60      28
      56      57      59      60      26      27      28      61      62      63
      64      65      66      27      28      61      62      63      64      65
      66      67      68      28      61      62      63      64      65      66
      67      68      63      64      65      66      67      68      30      31
      32      34      35      36      37      41      70      71      74      75
      76      77      31      32      33      34      35      36      37      70
      71      72      73      76      77      32      33      34      35      37
      69      70      71      33      34      38      40      69      38      39
      69      35      36      37      70      71      72      73      74      75
      36      37      70      71      72      73      74      75      76      77
      37      70      71      72      73      74      75      76      77      72
      73      74      75      76      77      39      69      40       0      42
      43      43      44      45      44      45      45      46      47      46
      47      47      48      49      48      49      49      50      51      50
      51      51      52      53      52      53      53      54      55      54
      55      55      56      56       0      58      59      60       0      62
      63      64      63      64      64      65      66      65      66      66
      67      68      67      68      68       0       0      71      72      73
      72      73      73      74      75      74      75      75      76      77
      76      77      77       0
%FLAG HBOND_ACOEF                                                               
%FORMAT(5E16.8)                                                                 

%FLAG HBOND_BCOEF                                                               
%FORMAT(5E16.8)                                                                 

%FLAG HBCUT                                                                     
%FORMAT(5E16.8)                                                                 

%FLAG AMBER_ATOM_TYPE                                                           
%FORMAT(20a4)                                                                   
ca  ca  ca  ca  ca  nu  c3  c3  c3  c3  c3  c3  c3  nu  ca  ca  ca  nb  ca  ca  
ca  ca  ca  ca  c3  c3  c3  c3  ca  ca  nb  ca  ca  c3  c3  c3  c3  ha  ha  ha  
hn  h1  h1  hc  hc  hc  hc  hc  hc  hc  hc  hc  hc  h1  h1  hn  ha  ha  ha  ha  
hc  hc  hc  hc  hc  hc  hc  hc  ha  hc  hc  hc  hc  hc  hc  hc  hc  
%FLAG TREE_CHAIN_CLASSIFICATION                                                 
%FORMAT(20a4)                                                                   
BLA BLA BLA BLA BLA BLA BLA BLA BLA BLA BLA BLA BLA BLA BLA BLA BLA BLA BLA BLA 
BLA BLA BLA BLA BLA BLA BLA BLA BLA BLA BLA BLA BLA BLA BLA BLA BLA BLA BLA BLA 
BLA BLA BLA BLA BLA BLA BLA BLA BLA BLA BLA BLA BLA BLA BLA BLA BLA BLA BLA BLA 
BLA BLA BLA BLA BLA BLA BLA BLA BLA BLA BLA BLA BLA BLA BLA BLA BLA 
%FLAG JOIN_ARRAY                                                                
%FORMAT(10I8)                                                                   
       0       0       0       0       0       0       0       0       0       0
       0       0       0       0       0       0       0       0       0       0
       0       0       0       0       0       0       0       0       0       0
       0       0       0       0       0       0       0       0       0       0
       0       0       0       0       0       0       0       0       0       0
       0       0       0       0       0       0       0       0       0       0
       0       0       0       0       0       0       0       0       0       0
       0       0       0       0       0       0       0
%FLAG IROTAT                                                                    
%FORMAT(10I8)                                                                   
       0       0       0       0       0       0       0       0       0       0
       0       0       0       0       0       0       0       0       0       0
       0       0       0       0       0       0       0       0       0       0
       0       0       0       0       0       0       0       0       0       0
       0       0       0       0       0       0       0       0       0       0
       0       0       0       0       0       0       0       0       0       0
       0       0       0       0       0       0       0       0       0       0
       0       0       0       0       0       0       0
%FLAG RADIUS_SET                                                                
%FORMAT(1a80)                                                                   
modified Bondi radii (mbondi)                                                   
%FLAG RADII                                                                     
%FORMAT(5E16.8)                                                                 
  1.70000000E+00  1.70000000E+00  1.70000000E+00  1.70000000E+00  1.70000000E+00
  1.55000000E+00  1.70000000E+00  1.70000000E+00  1.70000000E+00  1.70000000E+00
  1.70000000E+00  1.70000000E+00  1.70000000E+00  1.55000000E+00  1.70000000E+00
  1.70000000E+00  1.70000000E+00  1.55000000E+00  1.70000000E+00  1.70000000E+00
  1.70000000E+00  1.70000000E+00  1.70000000E+00  1.70000000E+00  1.70000000E+00
  1.70000000E+00  1.70000000E+00  1.70000000E+00  1.70000000E+00  1.70000000E+00
  1.55000000E+00  1.70000000E+00  1.70000000E+00  1.70000000E+00  1.70000000E+00
  1.70000000E+00  1.70000000E+00  1.30000000E+00  1.30000000E+00  1.30000000E+00
  1.30000000E+00  1.30000000E+00  1.30000000E+00  1.30000000E+00  1.30000000E+00
  1.30000000E+00  1.30000000E+00  1.30000000E+00  1.30000000E+00  1.30000000E+00
  1.30000000E+00  1.30000000E+00  1.30000000E+00  1.30000000E+00  1.30000000E+00
  1.30000000E+00  1.30000000E+00  1.30000000E+00  1.30000000E+00  1.30000000E+00
  1.30000000E+00  1.30000000E+00  1.30000000E+00  1.30000000E+00  1.30000000E+00
  1.30000000E+00  1.30000000E+00  1.30000000E+00  1.30000000E+00  1.30000000E+00
  1.30000000E+00  1.30000000E+00  1.30000000E+00  1.30000000E+00  1.30000000E+00
  1.30000000E+00  1.30000000E+00
%FLAG SCREEN                                                                    
%FORMAT(5E16.8)                                                                 
  7.20000000E-01  7.20000000E-01  7.20000000E-01  7.20000000E-01  7.20000000E-01
  7.90000000E-01  7.20000000E-01  7.20000000E-01  7.20000000E-01  7.20000000E-01
  7.20000000E-01  7.20000000E-01  7.20000000E-01  7.90000000E-01  7.20000000E-01
  7.20000000E-01  7.20000000E-01  7.90000000E-01  7.20000000E-01  7.20000000E-01
  7.20000000E-01  7.20000000E-01  7.20000000E-01  7.20000000E-01  7.20000000E-01
  7.20000000E-01  7.20000000E-01  7.20000000E-01  7.20000000E-01  7.20000000E-01
  7.90000000E-01  7.20000000E-01  7.20000000E-01  7.20000000E-01  7.20000000E-01
  7.20000000E-01  7.20000000E-01  8.50000000E-01  8.50000000E-01  8.50000000E-01
  8.50000000E-01  8.50000000E-01  8.50000000E-01  8.50000000E-01  8.50000000E-01
  8.50000000E-01  8.50000000E-01  8.50000000E-01  8.50000000E-01  8.50000000E-01
  8.50000000E-01  8.50000000E-01  8.50000000E-01  8.50000000E-01  8.50000000E-01
  8.50000000E-01  8.50000000E-01  8.50000000E-01  8.50000000E-01  8.50000000E-01
  8.50000000E-01  8.50000000E-01  8.50000000E-01  8.50000000E-01  8.50000000E-01
  8.50000000E-01  8.50000000E-01  8.50000000E-01  8.50000000E-01  8.50000000E-01
  8.50000000E-01  8.50000000E-01  8.50000000E-01  8.50000000E-01  8.50000000E-01
  8.50000000E-01  8.50000000E-01
%FLAG IPOL                                                                      
%FORMAT(1I8)                                                                    
       0
