MOL
    77
  -2.3140000  -1.9110000   1.1000000  -1.1840000  -2.4030000   1.7320000
  -0.2690000  -1.5110000   2.2930000  -0.4620000  -0.1080000   2.2260000
   0.4420000   0.8530000   2.7670000   1.6360000   0.4420000   3.3810000
   2.8920000   0.5810000   2.6480000   3.1690000  -0.6620000   1.8020000
   4.4850000  -0.5420000   1.0310000   4.8100000  -1.7740000   0.1740000
   3.7000000  -2.2300000  -0.7790000   3.3090000  -1.1740000  -1.8190000
   2.0070000  -1.5270000  -2.5430000   0.8890000  -1.3950000  -1.6160000
  -0.3990000  -1.6730000  -2.0990000  -1.2460000  -0.6090000  -2.4690000
  -2.5250000  -0.9250000  -2.9320000  -2.9600000  -2.1970000  -3.0960000
  -2.1470000  -3.2080000  -2.7620000  -2.6180000  -4.5050000  -2.9160000
  -1.8530000  -5.6180000  -2.5620000  -0.5840000  -5.4360000  -2.0320000
  -0.0900000  -4.1430000  -1.8730000  -0.8510000  -3.0090000  -2.2480000
  -3.5080000   0.1440000  -3.3320000  -3.1850000   1.5100000  -2.7380000
  -1.7240000   1.8460000  -2.9910000  -0.8130000   0.8300000  -2.3040000
   0.1450000   2.2270000   2.6400000  -1.0350000   2.5810000   1.9800000
  -1.8860000   1.6780000   1.4420000  -1.6160000   0.3730000   1.5760000
  -2.5180000  -0.5320000   1.0320000  -1.4280000   4.0210000   1.7730000
  -0.7750000   4.9770000   2.7630000   0.7200000   4.7040000   2.8310000
   0.9800000   3.2830000   3.3300000  -3.0290000  -2.5890000   0.6420000
  -1.0070000  -3.4740000   1.7780000   0.6100000  -1.9250000   2.7770000
   1.5610000  -0.3650000   3.9900000   3.6970000   0.7110000   3.3800000
   2.8940000   1.4700000   2.0080000   3.1940000  -1.5520000   2.4430000
   2.3420000  -0.7940000   1.0980000   5.3080000  -0.3900000   1.7410000
   4.4620000   0.3520000   0.3980000   5.7200000  -1.5690000  -0.4030000
   5.0500000  -2.6100000   0.8430000   2.8280000  -2.5450000  -0.1940000
   4.0420000  -3.1300000  -1.3060000   3.1960000  -0.1880000  -1.3560000
   4.1180000  -1.0880000  -2.5550000   1.8700000  -0.8350000  -3.3820000
   2.0720000  -2.5400000  -2.9550000   0.9320000  -0.6260000  -0.9540000
  -3.6180000  -4.6520000  -3.3180000  -2.2560000  -6.6190000  -2.6940000
   0.0180000  -6.2920000  -1.7390000   0.8960000  -4.0100000  -1.4350000
  -4.5170000  -0.1520000  -3.0240000  -3.5060000   0.2110000  -4.4270000
  -3.8310000   2.2720000  -3.1890000  -3.3850000   1.5120000  -1.6600000
  -1.4950000   2.8530000  -2.6230000  -1.5290000   1.8470000  -4.0710000
   0.2000000   0.9670000  -2.7000000  -0.7800000   1.0560000  -1.2320000
  -3.4020000  -0.1540000   0.5260000  -2.5180000   4.1200000   1.8430000
  -1.1420000   4.3010000   0.7510000  -1.2200000   4.8510000   3.7580000
  -0.9580000   6.0120000   2.4550000   1.2060000   5.4250000   3.4990000
   1.1640000   4.8370000   1.8360000   2.0500000   3.0890000   3.2160000
   0.7530000   3.2370000   4.4030000
