MOL
    47
  -3.9230000  -0.1680000  -0.7110000  -2.8710000   0.7190000  -0.3540000
  -3.2740000   2.0870000  -0.4530000  -2.1100000   3.0030000  -0.0720000
  -1.8830000   2.9350000   1.3410000  -0.9770000   3.9500000   1.7840000
  -0.7350000   3.7790000   3.2850000   0.0030000   2.5930000   3.6050000
   1.4080000   2.7130000   3.4140000   1.9340000   2.1170000   2.1030000
   3.0360000   2.4370000   1.6660000   1.0540000   1.2060000   1.5510000
   1.2320000   0.4120000   0.4050000   2.4000000   0.3960000  -0.3610000
   2.4970000  -0.4220000  -1.4930000   1.4190000  -1.2310000  -1.8560000
   1.5130000  -2.2520000  -3.3010000   2.7520000  -1.9440000  -3.9870000
   0.2510000  -2.1820000  -4.0040000   1.7630000  -3.7770000  -2.6350000
   0.6130000  -4.6420000  -2.7840000  -0.4690000  -4.4950000  -2.0580000
  -1.4160000  -5.4610000  -2.3450000  -0.9850000  -6.3040000  -3.2600000
   0.6060000  -5.9950000  -3.8250000   0.2430000  -1.2180000  -1.1060000
   0.1600000  -0.4050000   0.0270000  -3.5570000  -1.1930000  -0.6100000
  -4.2250000  -0.0050000  -1.7500000  -4.7790000  -0.0350000  -0.0430000
  -3.5750000   2.2930000  -1.4860000  -4.1230000   2.2590000   0.2190000
  -1.1940000   2.6990000  -0.5900000  -2.3640000   4.0330000  -0.3470000
  -0.0430000   3.8800000   1.2200000  -1.4330000   4.9300000   1.6030000
  -0.2330000   4.6580000   3.7040000  -1.7010000   3.6800000   3.7930000
   1.7410000   3.7540000   3.4920000   1.8880000   2.1480000   4.2210000
   0.1520000   1.1430000   2.0250000   3.2570000   1.0110000  -0.1050000
   3.4140000  -0.4130000  -2.0780000   2.6270000  -4.1650000  -3.0060000
  -1.5840000  -7.1290000  -3.6190000  -0.6120000  -1.8280000  -1.3900000
  -0.7640000  -0.4070000   0.6020000
