%VERSION  VERSION_STAMP = V0001.000  DATE = 07/11/26  13:42:14                  
%FLAG TITLE                                                                     
%FORMAT(20a4)                                                                   
MOL                                                                             
%FLAG POINTERS                                                                  
%FORMAT(10I8)                                                                   
      47      12      20      28      45      36      76      60       0       0
     229       1      28      36      60      19      31      30      15       0
       0       0       0       0       0       0       0       0      47       0
       0
%FLAG ATOM_NAME                                                                 
%FORMAT(20a4)                                                                   
C1  O1  C2  C3  O2  C4  C5  O3  C6  C7  O4  N1  C8  C9  C10 C11 S1  O5  O6  N2  
C12 N3  N4  C13 S2  C14 C15 H1  H2  H3  H4  H5  H6  H7  H8  H9  H10 H11 H12 H13 
H14 H15 H16 H17 H18 H19 H20 
%FLAG CHARGE                                                                    
%FORMAT(5E16.8)                                                                 
  2.05365321E+00 -7.88296698E+00  2.21218722E+00  2.21218722E+00 -7.86474468E+00
  1.59262902E+00  2.17574262E+00 -7.37274258E+00  9.18403920E-01  1.17187611E+01
 -1.07165346E+01 -8.40230253E+00  2.74427838E+00 -3.81757185E+00  5.28446700E-01
 -8.44603605E+00  2.78655412E+01 -1.16950721E+01 -1.16950721E+01 -1.49386415E+01
  1.19046286E+01 -7.19780850E+00 -5.17513320E+00  5.69082429E+00 -3.98703924E+00
  5.28446700E-01 -3.81757185E+00  7.53801884E-01  7.53801884E-01  7.53801884E-01
  8.32759110E-01  8.32759110E-01  8.78314860E-01  8.78314860E-01  7.50758760E-01
  7.50758760E-01  1.23364971E+00  1.23364971E+00  1.50698421E+00  1.50698421E+00
  6.47802765E+00  3.17979135E+00  2.91556800E+00  8.37861354E+00  1.18627173E+00
  2.91556800E+00  3.17979135E+00
%FLAG ATOMIC_NUMBER                                                             
%FORMAT(10I8)                                                                   
       6       8       6       6       8       6       6       8       6       6
       8       7       6       6       6       6      16       8       8       7
       6       7       7       6      16       6       6       1       1       1
       1       1       1       1       1       1       1       1       1       1
       1       1       1       1       1       1       1
%FLAG MASS                                                                      
%FORMAT(5E16.8)                                                                 
  1.20100000E+01  1.60000000E+01  1.20100000E+01  1.20100000E+01  1.60000000E+01
  1.20100000E+01  1.20100000E+01  1.60000000E+01  1.20100000E+01  1.20100000E+01
  1.60000000E+01  1.40100000E+01  1.20100000E+01  1.20100000E+01  1.20100000E+01
  1.20100000E+01  3.20600000E+01  1.60000000E+01  1.60000000E+01  1.40100000E+01
  1.20100000E+01  1.40100000E+01  1.40100000E+01  1.20100000E+01  3.20600000E+01
  1.20100000E+01  1.20100000E+01  1.00800000E+00  1.00800000E+00  1.00800000E+00
  1.00800000E+00  1.00800000E+00  1.00800000E+00  1.00800000E+00  1.00800000E+00
  1.00800000E+00  1.00800000E+00  1.00800000E+00  1.00800000E+00  1.00800000E+00
  1.00800000E+00  1.00800000E+00  1.00800000E+00  1.00800000E+00  1.00800000E+00
  1.00800000E+00  1.00800000E+00
%FLAG ATOM_TYPE_INDEX                                                           
%FORMAT(10I8)                                                                   
       1       2       1       1       2       1       1       2       1       3
       4       5       3       3       3       3       6       4       4       7
       3       8       8       3       6       3       3       9       9       9
       9       9       9       9       9       9       9       9       9       9
      10      11      11      10      12      11      11
%FLAG NUMBER_EXCLUDED_ATOMS                                                     
%FORMAT(10I8)                                                                   
       8      10      10       9      11       9       9      10       9       8
       5      10      10       9      10      12      11       5       4       7
       6       5       3       2       2       4       4       2       1       1
       3       2       1       1       3       2       1       1       1       1
       1       1       1       1       1       1       1
%FLAG NONBONDED_PARM_INDEX                                                      
%FORMAT(10I8)                                                                   
       1       2       4       7      11      16      22      29      37      46
      56      67       2       3       5       8      12      17      23      30
      38      47      57      68       4       5       6       9      13      18
      24      31      39      48      58      69       7       8       9      10
      14      19      25      32      40      49      59      70      11      12
      13      14      15      20      26      33      41      50      60      71
      16      17      18      19      20      21      27      34      42      51
      61      72      22      23      24      25      26      27      28      35
      43      52      62      73      29      30      31      32      33      34
      35      36      44      53      63      74      37      38      39      40
      41      42      43      44      45      54      64      75      46      47
      48      49      50      51      52      53      54      55      65      76
      56      57      58      59      60      61      62      63      64      65
      66      77      67      68      69      70      71      72      73      74
      75      76      77      78
%FLAG RESIDUE_LABEL                                                             
%FORMAT(20a4)                                                                   
MOL 
%FLAG RESIDUE_POINTER                                                           
%FORMAT(10I8)                                                                   
       1
%FLAG BOND_FORCE_CONSTANT                                                       
%FORMAT(5E16.8)                                                                 
  2.84800000E+02  3.75900000E+02  2.32500000E+02  2.43200000E+02  6.52600000E+02
  3.56200000E+02  3.15200000E+02  5.27300000E+02  3.78600000E+02  3.95700000E+02
  2.09800000E+02  6.53200000E+02  2.87200000E+02  3.63500000E+02  5.29500000E+02
  4.50700000E+02  2.32000000E+02  2.90700000E+02  4.03500000E+02
%FLAG BOND_EQUIL_VALUE                                                          
%FORMAT(5E16.8)                                                                 
  1.43200000E+00  1.09700000E+00  1.53800000E+00  1.52400000E+00  1.21800000E+00
  1.37900000E+00  1.41200000E+00  1.01300000E+00  1.39800000E+00  1.08600000E+00
  1.79100000E+00  1.46600000E+00  1.71400000E+00  1.37300000E+00  1.01200000E+00
  1.31700000E+00  1.75600000E+00  1.36500000E+00  1.08200000E+00
%FLAG ANGLE_FORCE_CONSTANT                                                      
%FORMAT(5E16.8)                                                                 
  6.63000000E+01  6.24000000E+01  8.53000000E+01  4.69000000E+01  8.53000000E+01
  8.46000000E+01  8.43000000E+01  4.75000000E+01  6.57000000E+01  4.87000000E+01
  1.13800000E+02  8.56000000E+01  4.80000000E+01  6.88000000E+01  4.87000000E+01
  6.34000000E+01  9.43000000E+01  9.05000000E+01  6.30000000E+01  4.36000000E+01
  1.26400000E+02  1.23100000E+02  1.11700000E+02  8.01000000E+01  4.93000000E+01
  9.17000000E+01  7.80000000E+01  8.33000000E+01  6.25000000E+01  4.23000000E+01
  3.88000000E+01
%FLAG ANGLE_EQUIL_VALUE                                                         
%FORMAT(5E16.8)                                                                 
  1.96314718E+00  1.91602327E+00  1.88443280E+00  1.91218355E+00  1.90607489E+00
  2.15024656E+00  2.01027109E+00  1.88879613E+00  2.15914774E+00  2.05163542E+00
  2.14762857E+00  2.09771213E+00  2.02458280E+00  2.09474507E+00  2.09230160E+00
  2.08427309E+00  1.89106506E+00  1.84132315E+00  2.13837832E+00  1.93574550E+00
  2.11900515E+00  1.85406406E+00  2.10574065E+00  2.12598647E+00  2.01812508E+00
  1.88181481E+00  1.57498579E+00  1.99857738E+00  2.19073822E+00  2.11219837E+00
  1.89298492E+00
%FLAG DIHEDRAL_FORCE_CONSTANT                                                   
%FORMAT(5E16.8)                                                                 
  0.00000000E+00  1.60000000E-01  2.40000000E-01  3.37000000E-01  1.70000000E-01
  0.00000000E+00  0.00000000E+00  2.50000000E-01  3.83333333E-01  8.00000000E-02
  6.30000000E-01  1.00000000E+00  7.50000000E-01  5.00000000E-01  2.50000000E+00
  9.50000000E-01  8.00000000E-01  8.00000000E-02  2.00000000E+00  3.62500000E+00
  4.50000000E-01  1.30000000E+00  1.00000000E-01  1.05000000E+00  4.75000000E+00
  1.10000000E+00  4.00000000E+00  1.55555556E-01  1.05000000E+01  1.10000000E+00
%FLAG DIHEDRAL_PERIODICITY                                                      
%FORMAT(5E16.8)                                                                 
  1.00000000E+00  2.00000000E+00  3.00000000E+00  3.00000000E+00  1.00000000E+00
  2.00000000E+00  3.00000000E+00  1.00000000E+00  3.00000000E+00  1.00000000E+00
  2.00000000E+00  3.00000000E+00  2.00000000E+00  3.00000000E+00  2.00000000E+00
  2.00000000E+00  1.00000000E+00  3.00000000E+00  1.00000000E+00  2.00000000E+00
  2.00000000E+00  2.00000000E+00  2.00000000E+00  2.00000000E+00  2.00000000E+00
  2.00000000E+00  2.00000000E+00  3.00000000E+00  2.00000000E+00  2.00000000E+00
%FLAG DIHEDRAL_PHASE                                                            
%FORMAT(5E16.8)                                                                 
  0.00000000E+00  0.00000000E+00  0.00000000E+00  0.00000000E+00  3.14159400E+00
  3.14159400E+00  0.00000000E+00  0.00000000E+00  0.00000000E+00  0.00000000E+00
  3.14159400E+00  3.14159400E+00  3.14159400E+00  0.00000000E+00  3.14159400E+00
  3.14159400E+00  0.00000000E+00  3.14159400E+00  0.00000000E+00  3.14159400E+00
  3.14159400E+00  3.14159400E+00  3.14159400E+00  3.14159400E+00  3.14159400E+00
  3.14159400E+00  3.14159400E+00  0.00000000E+00  3.14159400E+00  3.14159400E+00
%FLAG SCEE_SCALE_FACTOR                                                         
%FORMAT(5E16.8)                                                                 
  1.20000000E+00  1.20000000E+00  1.20000000E+00  1.20000000E+00  1.20000000E+00
  1.20000000E+00  1.20000000E+00  1.20000000E+00  1.20000000E+00  1.20000000E+00
  1.20000000E+00  1.20000000E+00  1.20000000E+00  1.20000000E+00  1.20000000E+00
  1.20000000E+00  1.20000000E+00  1.20000000E+00  1.20000000E+00  1.20000000E+00
  1.20000000E+00  1.20000000E+00  1.20000000E+00  1.20000000E+00  1.20000000E+00
  1.20000000E+00  1.20000000E+00  1.20000000E+00  0.00000000E+00  0.00000000E+00
%FLAG SCNB_SCALE_FACTOR                                                         
%FORMAT(5E16.8)                                                                 
  2.00000000E+00  2.00000000E+00  2.00000000E+00  2.00000000E+00  2.00000000E+00
  2.00000000E+00  2.00000000E+00  2.00000000E+00  2.00000000E+00  2.00000000E+00
  2.00000000E+00  2.00000000E+00  2.00000000E+00  2.00000000E+00  2.00000000E+00
  2.00000000E+00  2.00000000E+00  2.00000000E+00  2.00000000E+00  2.00000000E+00
  2.00000000E+00  2.00000000E+00  2.00000000E+00  2.00000000E+00  2.00000000E+00
  2.00000000E+00  2.00000000E+00  2.00000000E+00  0.00000000E+00  0.00000000E+00
%FLAG SOLTY                                                                     
%FORMAT(5E16.8)                                                                 
  0.00000000E+00  0.00000000E+00  0.00000000E+00  0.00000000E+00  0.00000000E+00
  0.00000000E+00  0.00000000E+00  0.00000000E+00  0.00000000E+00  0.00000000E+00
  0.00000000E+00  0.00000000E+00  0.00000000E+00  0.00000000E+00  0.00000000E+00
%FLAG LENNARD_JONES_ACOEF                                                       
%FORMAT(5E16.8)                                                                 
  1.02073671E+06  5.42502534E+05  2.83662575E+05  8.43969952E+05  4.46121722E+05
  6.96551276E+05  6.30925504E+05  3.27367585E+05  5.17507491E+05  3.76435470E+05
  8.48258258E+05  4.47026838E+05  6.99381362E+05  5.17814271E+05  7.01825028E+05
  2.09089895E+06  1.12086734E+06  1.73376823E+06  1.30884564E+06  1.74537186E+06
  4.26366419E+06  9.89136215E+05  5.21588833E+05  8.15700858E+05  6.04358274E+05
  8.18644626E+05  2.03458349E+06  9.54886922E+05  9.31115275E+05  4.94433451E+05
  7.69642101E+05  5.74782316E+05  7.73425391E+05  1.90820499E+06  9.01905150E+05
  8.49322032E+05  6.97998263E+04  3.44374471E+04  5.63013422E+04  3.86646725E+04
  5.58085097E+04  1.48672098E+05  6.52595638E+04  6.34160397E+04  3.39005767E+03
  2.23577481E+03  9.46795083E+02  1.71458823E+03  9.87857350E+02  1.65195713E+03
  5.15374979E+03  1.94284817E+03  2.01475241E+03  5.24570081E+01  1.34728399E-01
  9.27554496E+04  4.65732396E+04  7.52549148E+04  5.27277400E+04  7.48403283E+04
  1.95762765E+05  8.74566229E+04  8.43518904E+04  4.88692384E+03  9.04434904E+01
  6.90855956E+03  6.46910138E+04  3.19887757E+04  5.22195041E+04  3.59538577E+04
  5.17840911E+04  1.37628606E+05  6.05484928E+04  5.87815925E+04  3.17496391E+03
  5.02830284E+01  4.56536476E+03  2.97255425E+03
%FLAG LENNARD_JONES_BCOEF                                                       
%FORMAT(5E16.8)                                                                 
  6.63431737E+02  4.38146883E+02  2.87011518E+02  5.90251928E+02  3.88758656E+02
  5.24668528E+02  5.62969425E+02  3.67361018E+02  4.98871431E+02  4.69350655E+02
  6.17825399E+02  4.06301077E+02  5.48900066E+02  5.21008860E+02  5.74088001E+02
  1.20800124E+03  8.01230425E+02  1.07629402E+03  1.03157656E+03  1.12747567E+03
  2.19459223E+03  7.14570130E+02  4.70067704E+02  6.34916791E+02  6.02865504E+02
  6.64089859E+02  1.30381522E+03  7.68192761E+02  6.12468585E+02  4.04310927E+02
  5.44830041E+02  5.19385932E+02  5.70234696E+02  1.11546536E+03  6.59538202E+02
  5.65406768E+02  1.14981426E+02  7.31636661E+01  1.01040256E+02  9.23664132E+01
  1.05029928E+02  2.13489607E+02  1.21646616E+02  1.05935811E+02  1.67944276E+01
  1.71355763E+01  1.01016461E+01  1.46824710E+01  1.22938581E+01  1.50468782E+01
  3.30984635E+01  1.74775900E+01  1.57231024E+01  1.73959275E+00  7.34107347E-02
  1.24325688E+02  7.98066064E+01  1.09570372E+02  1.01173582E+02  1.14083104E+02
  2.29782888E+02  1.32088478E+02  1.14599119E+02  1.89134207E+01  2.14252117E+00
  2.10929191E+01  1.03827676E+02  6.61407978E+01  9.12729468E+01  8.35449674E+01
  9.48968218E+01  1.92666848E+02  1.09905709E+02  9.56653235E+01  1.52447987E+01
  1.59752321E+00  1.71467049E+01  1.38359132E+01
%FLAG BONDS_INC_HYDROGEN                                                        
%FORMAT(10I8)                                                                   
       0      81       2       0      84       2       0      87       2       6
      90       2       6      93       2       9      96       2       9      99
       2      15     102       2      15     105       2      18     108       2
      18     111       2      24     114       2      24     117       2      33
     120       8      39     123      10      42     126      10      57     129
      15      69     132      19      75     135      10      78     138      10
%FLAG BONDS_WITHOUT_HYDROGEN                                                    
%FORMAT(10I8)                                                                   
       0       3       1       3       6       1       6       9       3       9
      12       1      12      15       1      15      18       3      18      21
       1      21      24       1      24      27       4      27      30       5
      27      33       6      33      36       7      36      39       9      36
      78       9      39      42       9      42      45       9      45      48
      11      45      75       9      48      51      12      48      54      12
      48      57      13      57      60      14      60      63      16      60
      72      17      63      66      18      66      69      16      69      72
      17      75      78       9
%FLAG ANGLES_INC_HYDROGEN                                                       
%FORMAT(10I8)                                                                   
       3       0      81       2       3       0      84       2       3       0
      87       2       3       6      90       2       3       6      93       2
       6       9      96       4       6       9      99       4       9       6
      90       4       9       6      93       4      12       9      96       2
      12       9      99       2      12      15     102       2      12      15
     105       2      15      18     108       4      15      18     111       4
      18      15     102       4      18      15     105       4      21      18
     108       2      21      18     111       2      21      24     114       2
      21      24     117       2      27      24     114       8      27      24
     117       8      27      33     120      10      36      33     120      13
      36      39     123      15      36      78     138      15      39      42
     126      15      42      39     123      15      45      42     126      15
      45      75     135      15      48      57     129      20      60      57
     129      25      66      69     132      29      72      69     132      30
      75      78     138      15      78      75     135      15      81       0
      84      31      81       0      87      31      84       0      87      31
      90       6      93      31      96       9      99      31     102      15
     105      31     108      18     111      31     114      24     117      31
%FLAG ANGLES_WITHOUT_HYDROGEN                                                   
%FORMAT(10I8)                                                                   
       0       3       6       1       3       6       9       3       6       9
      12       3       9      12      15       1      12      15      18       3
      15      18      21       3      18      21      24       1      21      24
      27       5      24      27      30       6      24      27      33       7
      27      33      36       9      30      27      33      11      33      36
      39      12      33      36      78      12      36      39      42      14
      36      78      75      14      39      36      78      14      39      42
      45      14      42      45      48      16      42      45      75      14
      45      48      51      17      45      48      54      17      45      48
      57      18      45      75      78      14      48      45      75      16
      48      57      60      19      51      48      54      21      51      48
      57      22      54      48      57      22      57      60      63      23
      57      60      72      24      60      63      66      26      60      72
      69      27      63      60      72      28      63      66      69      26
      66      69      72      28
%FLAG DIHEDRALS_INC_HYDROGEN                                                    
%FORMAT(10I8)                                                                   
       0       3       6      90       4       0       3       6      93       4
       3       6       9      96       8       3       6      -9      96       7
       3       6       9      99       8       3       6      -9      99       7
      81       0       3       6       4      84       0       3       6       4
      87       0       3       6       4       9      12      15     102       4
       9      12      15     105       4      12       9       6      90       8
      12       9      -6      90       7      12       9       6      93       8
      12       9      -6      93       7      12      15      18     108       8
      12      15     -18     108       7      12      15      18     111       8
      12      15     -18     111       7      15      12       9      96       4
      15      12       9      99       4      18      21      24     114       4
      18      21      24     117       4      21      18      15     102       8
      21      18     -15     102       7      21      18      15     105       8
      21      18     -15     105       7      24      21      18     108       4
      24      21      18     111       4      24      27      33     120      15
      30      27      24     114      17      30      27     -24     114      18
      30      27      24     117      17      30      27     -24     117      18
      30      27      33     120      19      30      27     -33     120      15
      33      27      24     114       6      33      27      24     117       6
      33      36      39     123      20      33      36      78     138      20
      36      39      42     126      20      36      78      75     135      20
      39      36      33     120      21      39      36      78     138      20
      42      45      75     135      20      45      42      39     123      20
      45      48      57     129      23      45      75      78     138      20
      48      45      42     126      20      48      45      75     135      20
      51      48      57     129      23      54      48      57     129      23
      60      72      69     132      26      63      60      57     129      24
      63      66      69     132      25      72      60      57     129      24
      75      45      42     126      20      78      36      33     120      21
      78      36      39     123      20      90       6       9      96      28
      90       6       9      99      28      93       6       9      96      28
      93       6       9      99      28     102      15      18     108      28
     102      15      18     111      28     105      15      18     108      28
     105      15      18     111      28     123      39      42     126      20
     135      75      78     138      20      27      36     -33    -120      30
      36      42     -39    -123      30      39      45     -42    -126      30
      60     129     -57     -48      30     132      66     -69     -72      30
      45      78     -75    -135      30      36      75     -78    -138      30
%FLAG DIHEDRALS_WITHOUT_HYDROGEN                                                
%FORMAT(10I8)                                                                   
       0       3       6       9       1       0       3      -6       9       2
       0       3      -6       9       3       3       6       9      12       5
       3       6      -9      12       6       3       6      -9      12       7
       6       9      12      15       1       6       9     -12      15       2
       6       9     -12      15       3       9      12      15      18       1
       9      12     -15      18       2       9      12     -15      18       3
      12      15      18      21       5      12      15     -18      21       6
      12      15     -18      21       7      15      18      21      24       1
      15      18     -21      24       2      15      18     -21      24       3
      18      21      24      27       9      21      24      27      30      10
      21      24     -27      30      11      21      24     -27      30      12
      21      24      27      33       6      24      27      33      36      13
      24      27     -33      36      14      27      33      36      39      16
      27      33      36      78      16      30      27      33      36      15
      33      36      39      42      20      33      36      78      75      20
      36      39      42      45      20      36      78     -75      45      20
      39      36      78      75      20      39      42      45      48      20
      39      42     -45      75      20      42      39      36      78      20
      42      45      48      51      22      42      45      48      54      22
      42      45      48      57      22      42      45     -75      78      20
      45      48      57      60      23      48      45      75      78      20
      48      57      60      63      24      48      57      60      72      24
      51      48      45      75      22      51      48      57      60      23
      54      48      45      75      22      54      48      57      60      23
      57      48      45      75      22      57      60      63      66      25
      57      60      72      69      26      60      63     -66      69      27
      60      72     -69      66      26      63      60     -72      69      26
      63      66     -69      72      25      66      63     -60      72      25
      24      33     -27     -30      29      39      78     -36     -33      30
      42      75     -45     -48      30      63      57     -60     -72      30
%FLAG EXCLUDED_ATOMS_LIST                                                       
%FORMAT(10I8)                                                                   
       2       3       4      28      29      30      31      32       3       4
       5      28      29      30      31      32      33      34       4       5
       6      28      29      30      31      32      33      34       5       6
       7      31      32      33      34      35      36       6       7       8
      31      32      33      34      35      36      37      38       7       8
       9      33      34      35      36      37      38       8       9      10
      35      36      37      38      39      40       9      10      11      12
      35      36      37      38      39      40      10      11      12      13
      37      38      39      40      41      11      12      13      14      27
      39      40      41      12      13      39      40      41      13      14
      15      26      27      39      40      41      42      47      14      15
      16      26      27      41      42      43      46      47      15      16
      17      26      27      41      42      43      47      16      17      18
      19      20      26      27      42      43      46      17      18      19
      20      21      26      27      42      43      44      46      47      18
      19      20      21      22      25      26      27      43      44      46
      19      20      21      26      44      20      21      26      44      21
      22      23      24      25      26      44      22      23      24      25
      44      45      23      24      25      44      45      24      25      45
      25      45      44      45      27      43      46      47      41      42
      46      47      29      30      30       0      32      33      34      33
      34      34       0      36      37      38      37      38      38       0
      40       0       0      43       0       0       0      47       0
%FLAG HBOND_ACOEF                                                               
%FORMAT(5E16.8)                                                                 

%FLAG HBOND_BCOEF                                                               
%FORMAT(5E16.8)                                                                 

%FLAG HBCUT                                                                     
%FORMAT(5E16.8)                                                                 

%FLAG AMBER_ATOM_TYPE                                                           
%FORMAT(20a4)                                                                   
c3  os  c3  c3  os  c3  c3  os  c3  c   o   ns  ca  ca  ca  ca  sy  o   o   nu  
cc  nd  nd  cc  ss  ca  ca  h1  h1  h1  h1  h1  h1  h1  h1  h1  h1  h1  h1  h1  
hn  ha  ha  hn  h5  ha  ha  
%FLAG TREE_CHAIN_CLASSIFICATION                                                 
%FORMAT(20a4)                                                                   
BLA BLA BLA BLA BLA BLA BLA BLA BLA BLA BLA BLA BLA BLA BLA BLA BLA BLA BLA BLA 
BLA BLA BLA BLA BLA BLA BLA BLA BLA BLA BLA BLA BLA BLA BLA BLA BLA BLA BLA BLA 
BLA BLA BLA BLA BLA BLA BLA 
%FLAG JOIN_ARRAY                                                                
%FORMAT(10I8)                                                                   
       0       0       0       0       0       0       0       0       0       0
       0       0       0       0       0       0       0       0       0       0
       0       0       0       0       0       0       0       0       0       0
       0       0       0       0       0       0       0       0       0       0
       0       0       0       0       0       0       0
%FLAG IROTAT                                                                    
%FORMAT(10I8)                                                                   
       0       0       0       0       0       0       0       0       0       0
       0       0       0       0       0       0       0       0       0       0
       0       0       0       0       0       0       0       0       0       0
       0       0       0       0       0       0       0       0       0       0
       0       0       0       0       0       0       0
%FLAG RADIUS_SET                                                                
%FORMAT(1a80)                                                                   
modified Bondi radii (mbondi)                                                   
%FLAG RADII                                                                     
%FORMAT(5E16.8)                                                                 
  1.70000000E+00  1.50000000E+00  1.70000000E+00  1.70000000E+00  1.50000000E+00
  1.70000000E+00  1.70000000E+00  1.50000000E+00  1.70000000E+00  1.70000000E+00
  1.50000000E+00  1.55000000E+00  1.70000000E+00  1.70000000E+00  1.70000000E+00
  1.70000000E+00  1.80000000E+00  1.50000000E+00  1.50000000E+00  1.55000000E+00
  1.70000000E+00  1.55000000E+00  1.55000000E+00  1.70000000E+00  1.80000000E+00
  1.70000000E+00  1.70000000E+00  1.30000000E+00  1.30000000E+00  1.30000000E+00
  1.30000000E+00  1.30000000E+00  1.30000000E+00  1.30000000E+00  1.30000000E+00
  1.30000000E+00  1.30000000E+00  1.30000000E+00  1.30000000E+00  1.30000000E+00
  1.30000000E+00  1.30000000E+00  1.30000000E+00  1.30000000E+00  1.30000000E+00
  1.30000000E+00  1.30000000E+00
%FLAG SCREEN                                                                    
%FORMAT(5E16.8)                                                                 
  7.20000000E-01  8.50000000E-01  7.20000000E-01  7.20000000E-01  8.50000000E-01
  7.20000000E-01  7.20000000E-01  8.50000000E-01  7.20000000E-01  7.20000000E-01
  8.50000000E-01  7.90000000E-01  7.20000000E-01  7.20000000E-01  7.20000000E-01
  7.20000000E-01  9.60000000E-01  8.50000000E-01  8.50000000E-01  7.90000000E-01
  7.20000000E-01  7.90000000E-01  7.90000000E-01  7.20000000E-01  9.60000000E-01
  7.20000000E-01  7.20000000E-01  8.50000000E-01  8.50000000E-01  8.50000000E-01
  8.50000000E-01  8.50000000E-01  8.50000000E-01  8.50000000E-01  8.50000000E-01
  8.50000000E-01  8.50000000E-01  8.50000000E-01  8.50000000E-01  8.50000000E-01
  8.50000000E-01  8.50000000E-01  8.50000000E-01  8.50000000E-01  8.50000000E-01
  8.50000000E-01  8.50000000E-01
%FLAG IPOL                                                                      
%FORMAT(1I8)                                                                    
       0
