%VERSION  VERSION_STAMP = V0001.000  DATE = 07/11/26  13:47:04                  
%FLAG TITLE                                                                     
%FORMAT(20a4)                                                                   
MOL                                                                             
%FLAG POINTERS                                                                  
%FORMAT(10I8)                                                                   
      96      13      48      53     115      73     221     158       0       0
     570       1      53      73     158      23      48      48      16       0
       0       0       0       0       0       0       0       0      96       0
       0
%FLAG ATOM_NAME                                                                 
%FORMAT(20a4)                                                                   
O1  C1  N1  C2  C3  O2  N2  C4  C5  C6  C7  C8  C9  C10 C11 C12 O3  N3  C13 C14 
C15 O4  N4  C16 C17 N5  C18 C19 C20 C21 O5  C22 C23 C24 C25 C26 C27 C28 C29 C30 
C31 C32 C33 C34 C35 C36 C37 S1  H1  H2  H3  H4  H5  H6  H7  H8  H9  H10 H11 H12 
H13 H14 H15 H16 H17 H18 H19 H20 H21 H22 H23 H24 H25 H26 H27 H28 H29 H30 H31 H32 
H33 H34 H35 H36 H37 H38 H39 H40 H41 H42 H43 H44 H45 H46 H47 H48 
%FLAG CHARGE                                                                    
%FORMAT(5E16.8)                                                                 
 -1.17187611E+01  1.32166342E+01 -1.02573327E+01  1.42862832E+00  1.22107632E+01
 -1.30307667E+01 -1.00933320E+01  8.50981410E-01 -7.12491930E-01 -2.08280889E+00
 -2.27778750E+00 -2.24134290E+00 -2.09556450E+00 -2.24134290E+00 -2.27778750E+00
  1.21014294E+01 -1.25934315E+01 -9.96577587E+00  1.60356240E+00 -3.26908062E+00
  1.23565416E+01 -1.08258684E+01 -8.68839264E+00  1.37578365E+00  1.60902909E+00
 -1.23073414E+01  2.21947614E+00 -1.48876191E+00 -2.12107572E+00  2.30329872E+00
 -7.39096488E+00  2.30329872E+00 -2.12107572E+00  1.60902909E+00  1.37578365E+00
 -1.58351787E+00 -1.47418407E+00 -1.47418407E+00 -1.58351787E+00 -3.61894878E+00
 -6.23202660E-01 -1.96436394E+00 -1.36667250E+00 -2.38712130E+00 -1.76756310E+00
 -1.91334150E+00 -1.04049333E+00  8.47336950E-01  6.11358165E+00  6.69669525E+00
  1.63454031E+00  1.26098316E+00  1.26098316E+00  2.52378855E+00  2.59667775E+00
  2.60578890E+00  2.59667775E+00  2.52378855E+00  6.13180395E+00  1.30653891E+00
  1.30653891E+00  1.68009606E+00  1.68009606E+00  1.61176244E+00  1.61176244E+00
  1.89876366E+00  1.89876366E+00  9.19861704E+00  1.68009606E+00  1.68009606E+00
  1.67098491E+00  1.04231556E+00  1.04231556E+00  1.10609361E+00  1.10609361E+00
  1.10609361E+00  1.10609361E+00  1.04231556E+00  1.04231556E+00  1.89876366E+00
  1.89876366E+00  1.61176244E+00  1.61176244E+00  1.20176068E+00  1.20176068E+00
  1.01498211E+00  1.01498211E+00  1.01498211E+00  1.01498211E+00  1.20176068E+00
  1.20176068E+00  3.20712480E+00  2.62401120E+00  2.64223350E+00  2.62401120E+00
  2.62401120E+00
%FLAG ATOMIC_NUMBER                                                             
%FORMAT(10I8)                                                                   
       8       6       7       6       6       8       7       6       6       6
       6       6       6       6       6       6       8       7       6       6
       6       8       7       6       6       7       6       6       6       6
       8       6       6       6       6       6       6       6       6       6
       6       6       6       6       6       6       6      16       1       1
       1       1       1       1       1       1       1       1       1       1
       1       1       1       1       1       1       1       1       1       1
       1       1       1       1       1       1       1       1       1       1
       1       1       1       1       1       1       1       1       1       1
       1       1       1       1       1       1
%FLAG MASS                                                                      
%FORMAT(5E16.8)                                                                 
  1.60000000E+01  1.20100000E+01  1.40100000E+01  1.20100000E+01  1.20100000E+01
  1.60000000E+01  1.40100000E+01  1.20100000E+01  1.20100000E+01  1.20100000E+01
  1.20100000E+01  1.20100000E+01  1.20100000E+01  1.20100000E+01  1.20100000E+01
  1.20100000E+01  1.60000000E+01  1.40100000E+01  1.20100000E+01  1.20100000E+01
  1.20100000E+01  1.60000000E+01  1.40100000E+01  1.20100000E+01  1.20100000E+01
  1.40100000E+01  1.20100000E+01  1.20100000E+01  1.20100000E+01  1.20100000E+01
  1.60000000E+01  1.20100000E+01  1.20100000E+01  1.20100000E+01  1.20100000E+01
  1.20100000E+01  1.20100000E+01  1.20100000E+01  1.20100000E+01  1.20100000E+01
  1.20100000E+01  1.20100000E+01  1.20100000E+01  1.20100000E+01  1.20100000E+01
  1.20100000E+01  1.20100000E+01  3.20600000E+01  1.00800000E+00  1.00800000E+00
  1.00800000E+00  1.00800000E+00  1.00800000E+00  1.00800000E+00  1.00800000E+00
  1.00800000E+00  1.00800000E+00  1.00800000E+00  1.00800000E+00  1.00800000E+00
  1.00800000E+00  1.00800000E+00  1.00800000E+00  1.00800000E+00  1.00800000E+00
  1.00800000E+00  1.00800000E+00  1.00800000E+00  1.00800000E+00  1.00800000E+00
  1.00800000E+00  1.00800000E+00  1.00800000E+00  1.00800000E+00  1.00800000E+00
  1.00800000E+00  1.00800000E+00  1.00800000E+00  1.00800000E+00  1.00800000E+00
  1.00800000E+00  1.00800000E+00  1.00800000E+00  1.00800000E+00  1.00800000E+00
  1.00800000E+00  1.00800000E+00  1.00800000E+00  1.00800000E+00  1.00800000E+00
  1.00800000E+00  1.00800000E+00  1.00800000E+00  1.00800000E+00  1.00800000E+00
  1.00800000E+00
%FLAG ATOM_TYPE_INDEX                                                           
%FORMAT(10I8)                                                                   
       1       2       3       4       2       1       3       4       4       2
       2       2       2       2       2       2       1       3       4       4
       2       1       5       4       4       6       4       4       4       4
       7       4       4       4       4       4       4       4       4       2
       2       2       2       2       2       2       2       8       9       9
      10      11      11      12      12      12      12      12       9      10
      10      11      11      10      10      13      13       9      13      13
      11      11      11      10      10      10      10      11      11      13
      13      10      10      11      11      11      11      11      11      11
      11      12      12      12      12      12
%FLAG NUMBER_EXCLUDED_ATOMS                                                     
%FORMAT(10I8)                                                                   
       7      12      16      19      16       5      12      13      14      13
      10       7       7       5       6      11       4       9       9      10
      14       5      15      12      14      18      19      18      13      10
      10       8       9      10       7      12      10       9       9       8
       8      10       9       7       7       5       5       2       1       1
       2       1       1       1       1       1       1       1       2       3
       2       1       1       3       2       2       1       4       2       1
       4       3       2       1       1       3       2       1       1       3
       2       1       1       3       2       3       2       3       2       1
       1       1       1       1       1       1
%FLAG NONBONDED_PARM_INDEX                                                      
%FORMAT(10I8)                                                                   
       1       2       4       7      11      16      22      29      37      46
      56      67      79       2       3       5       8      12      17      23
      30      38      47      57      68      80       4       5       6       9
      13      18      24      31      39      48      58      69      81       7
       8       9      10      14      19      25      32      40      49      59
      70      82      11      12      13      14      15      20      26      33
      41      50      60      71      83      16      17      18      19      20
      21      27      34      42      51      61      72      84      22      23
      24      25      26      27      28      35      43      52      62      73
      85      29      30      31      32      33      34      35      36      44
      53      63      74      86      37      38      39      40      41      42
      43      44      45      54      64      75      87      46      47      48
      49      50      51      52      53      54      55      65      76      88
      56      57      58      59      60      61      62      63      64      65
      66      77      89      67      68      69      70      71      72      73
      74      75      76      77      78      90      79      80      81      82
      83      84      85      86      87      88      89      90      91
%FLAG RESIDUE_LABEL                                                             
%FORMAT(20a4)                                                                   
MOL 
%FLAG RESIDUE_POINTER                                                           
%FORMAT(10I8)                                                                   
       1
%FLAG BOND_FORCE_CONSTANT                                                       
%FORMAT(5E16.8)                                                                 
  6.52600000E+02  3.56200000E+02  2.95400000E+02  2.63800000E+02  5.27300000E+02
  2.43200000E+02  2.32500000E+02  3.75900000E+02  2.50300000E+02  3.75900000E+02
  3.78600000E+02  3.95700000E+02  3.56200000E+02  2.63800000E+02  2.22600000E+02
  3.86500000E+02  4.82900000E+02  2.84800000E+02  4.16100000E+02  2.32000000E+02
  3.08200000E+02  4.00100000E+02  2.16100000E+02
%FLAG BOND_EQUIL_VALUE                                                          
%FORMAT(5E16.8)                                                                 
  1.21800000E+00  1.37900000E+00  1.46800000E+00  1.46200000E+00  1.01300000E+00
  1.52400000E+00  1.53800000E+00  1.09700000E+00  1.51600000E+00  1.09700000E+00
  1.39800000E+00  1.08600000E+00  1.37900000E+00  1.46200000E+00  1.51100000E+00
  1.09100000E+00  1.03000000E+00  1.43200000E+00  1.37300000E+00  1.75600000E+00
  1.45600000E+00  1.08400000E+00  1.78100000E+00
%FLAG ANGLE_FORCE_CONSTANT                                                      
%FORMAT(5E16.8)                                                                 
  1.13800000E+02  8.67000000E+01  6.53000000E+01  4.87000000E+01  6.72000000E+01
  6.30000000E+01  8.71000000E+01  8.45000000E+01  8.32000000E+01  4.61000000E+01
  8.46000000E+01  8.43000000E+01  6.49000000E+01  4.68000000E+01  6.53000000E+01
  6.15000000E+01  6.52000000E+01  4.69000000E+01  6.56000000E+01  4.73000000E+01
  6.88000000E+01  4.87000000E+01  4.75000000E+01  8.43000000E+01  4.74000000E+01
  6.53000000E+01  1.13800000E+02  8.32000000E+01  6.15000000E+01  6.49000000E+01
  8.10000000E+01  4.67000000E+01  6.45000000E+01  4.62000000E+01  6.01000000E+01
  8.53000000E+01  6.63000000E+01  6.24000000E+01  6.98000000E+01  4.90000000E+01
  7.78000000E+01  6.69000000E+01  6.71000000E+01  4.63000000E+01  6.35000000E+01
  3.90000000E+01  3.88000000E+01  3.88000000E+01
%FLAG ANGLE_EQUIL_VALUE                                                         
%FORMAT(5E16.8)                                                                 
  2.14762857E+00  2.16298747E+00  2.10643878E+00  2.05163542E+00  2.11795796E+00
  2.12877900E+00  1.96698691E+00  1.90345690E+00  1.94796281E+00  2.05390434E+00
  2.15024656E+00  2.01027109E+00  1.94621748E+00  1.91637234E+00  1.93801443E+00
  1.90031530E+00  1.95599133E+00  1.91218355E+00  2.10783504E+00  1.92806605E+00
  2.09474507E+00  2.09230160E+00  1.88879613E+00  2.01027109E+00  1.89839544E+00
  2.10643878E+00  2.14762857E+00  1.94796281E+00  1.90031530E+00  2.01829961E+00
  1.99334139E+00  1.92963685E+00  1.91392888E+00  1.92178286E+00  1.88513093E+00
  1.88443280E+00  1.96314718E+00  1.91602327E+00  1.98112408E+00  2.12511381E+00
  1.56154675E+00  1.94691562E+00  2.10818411E+00  2.16490733E+00  2.09544320E+00
  1.87762601E+00  1.89298492E+00  1.91549968E+00
%FLAG DIHEDRAL_FORCE_CONSTANT                                                   
%FORMAT(5E16.8)                                                                 
  2.50000000E+00  2.00000000E+00  2.87500000E+00  6.40000000E-01  3.90000000E-01
  1.02000000E+00  1.70000000E-01  1.00000000E-01  4.00000000E+00  1.10000000E+00
  0.00000000E+00  1.00000000E-01  2.12000000E+00  1.00000000E-01  1.55555556E-01
  5.00000000E-01  2.60000000E-01  1.10000000E-01  2.90000000E-01  1.30000000E-01
  8.00000000E-02  0.00000000E+00  7.40000000E-01  2.70000000E-01  5.50000000E-01
  7.10000000E-01  0.00000000E+00  2.10000000E-01  2.45000000E-01  3.62500000E+00
  8.00000000E-01  8.00000000E-02  8.30000000E-01  4.00000000E-02  1.56000000E-01
  0.00000000E+00  1.60000000E-01  2.40000000E-01  3.37000000E-01  2.50000000E-01
  0.00000000E+00  5.05000000E-01  4.00000000E-01  7.00000000E-01  1.09000000E-01
  1.20000000E-01  1.05000000E+01  1.10000000E+00
%FLAG DIHEDRAL_PERIODICITY                                                      
%FORMAT(5E16.8)                                                                 
  2.00000000E+00  1.00000000E+00  2.00000000E+00  1.00000000E+00  2.00000000E+00
  1.00000000E+00  3.00000000E+00  4.00000000E+00  2.00000000E+00  2.00000000E+00
  2.00000000E+00  1.00000000E+00  2.00000000E+00  3.00000000E+00  3.00000000E+00
  1.00000000E+00  2.00000000E+00  1.00000000E+00  2.00000000E+00  3.00000000E+00
  3.00000000E+00  2.00000000E+00  1.00000000E+00  2.00000000E+00  3.00000000E+00
  2.00000000E+00  4.00000000E+00  3.00000000E+00  2.00000000E+00  2.00000000E+00
  1.00000000E+00  3.00000000E+00  1.00000000E+00  3.00000000E+00  3.00000000E+00
  1.00000000E+00  2.00000000E+00  3.00000000E+00  3.00000000E+00  1.00000000E+00
  3.00000000E+00  2.00000000E+00  2.00000000E+00  2.00000000E+00  3.00000000E+00
  3.00000000E+00  2.00000000E+00  2.00000000E+00
%FLAG DIHEDRAL_PHASE                                                            
%FORMAT(5E16.8)                                                                 
  3.14159400E+00  0.00000000E+00  3.14159400E+00  0.00000000E+00  3.14159400E+00
  3.14159400E+00  0.00000000E+00  3.14159400E+00  3.14159400E+00  3.14159400E+00
  3.14159400E+00  3.14159400E+00  3.14159400E+00  0.00000000E+00  0.00000000E+00
  0.00000000E+00  3.14159400E+00  0.00000000E+00  3.14159400E+00  0.00000000E+00
  0.00000000E+00  0.00000000E+00  0.00000000E+00  3.14159400E+00  3.14159400E+00
  3.14159400E+00  3.14159400E+00  0.00000000E+00  3.14159400E+00  3.14159400E+00
  0.00000000E+00  3.14159400E+00  0.00000000E+00  3.14159400E+00  0.00000000E+00
  0.00000000E+00  0.00000000E+00  0.00000000E+00  0.00000000E+00  0.00000000E+00
  0.00000000E+00  3.14159400E+00  3.14159400E+00  3.14159400E+00  0.00000000E+00
  0.00000000E+00  3.14159400E+00  3.14159400E+00
%FLAG SCEE_SCALE_FACTOR                                                         
%FORMAT(5E16.8)                                                                 
  1.20000000E+00  1.20000000E+00  1.20000000E+00  1.20000000E+00  1.20000000E+00
  1.20000000E+00  1.20000000E+00  1.20000000E+00  1.20000000E+00  1.20000000E+00
  1.20000000E+00  1.20000000E+00  1.20000000E+00  1.20000000E+00  1.20000000E+00
  1.20000000E+00  1.20000000E+00  1.20000000E+00  1.20000000E+00  1.20000000E+00
  1.20000000E+00  1.20000000E+00  1.20000000E+00  1.20000000E+00  1.20000000E+00
  1.20000000E+00  1.20000000E+00  1.20000000E+00  1.20000000E+00  1.20000000E+00
  1.20000000E+00  1.20000000E+00  1.20000000E+00  1.20000000E+00  1.20000000E+00
  1.20000000E+00  1.20000000E+00  1.20000000E+00  1.20000000E+00  1.20000000E+00
  1.20000000E+00  1.20000000E+00  1.20000000E+00  1.20000000E+00  1.20000000E+00
  1.20000000E+00  0.00000000E+00  0.00000000E+00
%FLAG SCNB_SCALE_FACTOR                                                         
%FORMAT(5E16.8)                                                                 
  2.00000000E+00  2.00000000E+00  2.00000000E+00  2.00000000E+00  2.00000000E+00
  2.00000000E+00  2.00000000E+00  2.00000000E+00  2.00000000E+00  2.00000000E+00
  2.00000000E+00  2.00000000E+00  2.00000000E+00  2.00000000E+00  2.00000000E+00
  2.00000000E+00  2.00000000E+00  2.00000000E+00  2.00000000E+00  2.00000000E+00
  2.00000000E+00  2.00000000E+00  2.00000000E+00  2.00000000E+00  2.00000000E+00
  2.00000000E+00  2.00000000E+00  2.00000000E+00  2.00000000E+00  2.00000000E+00
  2.00000000E+00  2.00000000E+00  2.00000000E+00  2.00000000E+00  2.00000000E+00
  2.00000000E+00  2.00000000E+00  2.00000000E+00  2.00000000E+00  2.00000000E+00
  2.00000000E+00  2.00000000E+00  2.00000000E+00  2.00000000E+00  2.00000000E+00
  2.00000000E+00  0.00000000E+00  0.00000000E+00
%FLAG SOLTY                                                                     
%FORMAT(5E16.8)                                                                 
  0.00000000E+00  0.00000000E+00  0.00000000E+00  0.00000000E+00  0.00000000E+00
  0.00000000E+00  0.00000000E+00  0.00000000E+00  0.00000000E+00  0.00000000E+00
  0.00000000E+00  0.00000000E+00  0.00000000E+00  0.00000000E+00  0.00000000E+00
  0.00000000E+00
%FLAG LENNARD_JONES_ACOEF                                                       
%FORMAT(5E16.8)                                                                 
  3.76435470E+05  5.17507491E+05  6.96551276E+05  5.17814271E+05  6.99381362E+05
  7.01825028E+05  6.30925504E+05  8.43969952E+05  8.48258258E+05  1.02073671E+06
  5.15491878E+05  7.01106848E+05  7.02755693E+05  8.52084164E+05  7.02078680E+05
  6.13063863E+05  8.78080588E+05  8.72740728E+05  1.08339010E+06  8.57202189E+05
  9.21656095E+05  3.27367585E+05  4.46121722E+05  4.47026838E+05  5.42502534E+05
  4.46307018E+05  5.42300297E+05  2.83662575E+05  1.30884564E+06  1.73376823E+06
  1.74537186E+06  2.09089895E+06  1.75889445E+06  2.29022351E+06  1.12086734E+06
  4.26366419E+06  9.87857350E+02  1.71458823E+03  1.65195713E+03  2.23577481E+03
  1.52360475E+03  1.00942006E+03  9.46795083E+02  5.15374979E+03  1.34728399E-01
  3.86646725E+04  5.63013422E+04  5.58085097E+04  6.97998263E+04  5.45183252E+04
  5.62691404E+04  3.44374471E+04  1.48672098E+05  5.24570081E+01  3.39005767E+03
  5.68021765E+04  8.12662403E+04  8.07866982E+04  1.00235148E+05  7.93773615E+04
  8.55808446E+04  5.02224902E+04  2.11783234E+05  9.47421632E+01  5.22955465E+03
  7.94617769E+03  5.27277400E+04  7.52549148E+04  7.48403283E+04  9.27554496E+04
  7.35931098E+04  7.98194249E+04  4.65732396E+04  1.95762765E+05  9.04434904E+01
  4.88692384E+03  7.41026906E+03  6.90855956E+03  1.12566992E+04  1.74110867E+04
  1.70902479E+04  2.19657590E+04  1.63679607E+04  1.45326307E+04  1.02811573E+04
  4.80874647E+04  7.30589786E+00  8.33358592E+02  1.35510742E+03  1.27542632E+03
  1.70079100E+02
%FLAG LENNARD_JONES_BCOEF                                                       
%FORMAT(5E16.8)                                                                 
  4.69350655E+02  4.98871431E+02  5.24668528E+02  5.21008860E+02  5.48900066E+02
  5.74088001E+02  5.62969425E+02  5.90251928E+02  6.17825399E+02  6.63431737E+02
  5.64804067E+02  5.97113873E+02  6.24158704E+02  6.72777963E+02  6.77820248E+02
  1.22328790E+03  1.32715352E+03  1.38141570E+03  1.50664821E+03  1.48748365E+03
  3.06326052E+03  3.67361018E+02  3.88758656E+02  4.06301077E+02  4.38146883E+02
  4.41089616E+02  9.65647936E+02  2.87011518E+02  1.03157656E+03  1.07629402E+03
  1.12747567E+03  1.20800124E+03  1.22973599E+03  2.78689013E+03  8.01230425E+02
  2.19459223E+03  1.22938581E+01  1.46824710E+01  1.50468782E+01  1.71355763E+01
  1.57004457E+01  2.53805311E+01  1.01016461E+01  3.30984635E+01  7.34107347E-02
  9.23664132E+01  1.01040256E+02  1.05029928E+02  1.14981426E+02  1.12788003E+02
  2.27570369E+02  7.31636661E+01  2.13489607E+02  1.73959275E+00  1.67944276E+01
  1.11953944E+02  1.21392023E+02  1.26366740E+02  1.37787728E+02  1.36094315E+02
  2.80652463E+02  8.83545880E+01  2.54804909E+02  2.33785449E+00  2.08590256E+01
  2.57122925E+01  1.01173582E+02  1.09570372E+02  1.14083104E+02  1.24325688E+02
  1.22913863E+02  2.54229244E+02  7.98066064E+01  2.29782888E+02  2.14252117E+00
  1.89134207E+01  2.32899892E+01  2.10929191E+01  4.98382106E+01  5.61885732E+01
  5.81215296E+01  6.45020662E+01  6.18000664E+01  1.15651879E+02  3.99761520E+01
  1.21416565E+02  6.49206153E-01  8.32679019E+00  1.06181419E+01  9.66228818E+00
  3.76172582E+00
%FLAG BONDS_INC_HYDROGEN                                                        
%FORMAT(10I8)                                                                   
       6     144       5      18     147       5      21     150       8      24
     153      10      24     156      10      30     159      12      33     162
      12      36     165      12      39     168      12      42     171      12
      51     174       5      54     177       8      54     180       8      57
     183      10      57     186      10      69     189       8      69     192
       8      72     195      16      72     198      16      75     201      17
      78     204      16      78     207      16      81     210      10      84
     213      10      84     216      10      87     219       8      87     222
       8      93     225       8      93     228       8      96     231      10
      96     234      10      99     237      16      99     240      16     102
     243       8     102     246       8     105     249      10     105     252
      10     108     255      10     108     258      10     111     261      10
     111     264      10     114     267      10     114     270      10     120
     273      22     126     276      12     129     279      12     132     282
      12     135     285      12
%FLAG BONDS_WITHOUT_HYDROGEN                                                    
%FORMAT(10I8)                                                                   
       0       3       1       3       6       2       3     117       3       6
       9       4       9      12       6       9     105       7       9     114
       7      12      15       1      12      18       2      18      21       4
      21      24       7      21      45       6      24      27       9      27
      30      11      27      42      11      30      33      11      33      36
      11      36      39      11      39      42      11      45      48       1
      45      51       2      51      54       4      54      57       7      57
      60       6      60      63       1      60      66      13      66      69
      14      66     102      14      69      72       7      72      75      15
      75      78      15      75      99      15      78      81       7      81
      84       7      81      96       7      84      87       7      87      90
      18      90      93      18      93      96       7      99     102       7
     105     108       7     108     111       7     111     114       7     117
     120      19     117     141      20     120     123      21     123     126
      11     123     138      11     126     129      11     129     132      11
     132     135      11     135     138      11     138     141      23
%FLAG ANGLES_INC_HYDROGEN                                                       
%FORMAT(10I8)                                                                   
       3       6     144       4       9       6     144      10       9     105
     249      14       9     105     252      14       9     114     267      14
       9     114     270      14      12      18     147       4      18      21
     150      16      21      18     147      10      21      24     153      14
      21      24     156      14      24      21     150      18      27      24
     153      20      27      24     156      20      27      30     159      22
      27      42     171      22      30      33     162      22      33      30
     159      22      33      36     165      22      36      33     162      22
      36      39     168      22      39      36     165      22      39      42
     171      22      42      39     168      22      45      21     150      23
      45      51     174       4      51      54     177      16      51      54
     180      16      54      51     174      10      54      57     183      14
      54      57     186      14      57      54     177      18      57      54
     180      18      60      57     183      25      60      57     186      25
      66      69     189      29      66      69     192      29      66     102
     243      29      66     102     246      29      69      72     195      32
      69      72     198      32      72      69     189      18      72      69
     192      18      72      75     201      34      75      72     195      35
      75      72     198      35      75      78     204      35      75      78
     207      35      75      99     237      35      75      99     240      35
      78      75     201      34      78      81     210      14      81      78
     204      32      81      78     207      32      81      84     213      14
      81      84     216      14      81      96     231      14      81      96
     234      14      84      81     210      14      84      87     219      18
      84      87     222      18      87      84     213      14      87      84
     216      14      90      87     219      38      90      87     222      38
      90      93     225      38      90      93     228      38      93      96
     231      14      93      96     234      14      96      93     225      18
      96      93     228      18      96      81     210      14      99      75
     201      34      99     102     243      18      99     102     246      18
     102      99     237      32     102      99     240      32     105     108
     255      14     105     108     258      14     108     105     249      14
     108     105     252      14     108     111     261      14     108     111
     264      14     111     108     255      14     111     108     258      14
     111     114     267      14     111     114     270      14     114     111
     261      14     114     111     264      14     117     120     273      40
     123     120     273      44     123     126     276      22     126     129
     279      22     129     126     276      22     129     132     282      22
     132     129     279      22     132     135     285      22     135     132
     282      22     138     135     285      22     153      24     156      46
     177      54     180      47     183      57     186      46     189      69
     192      47     195      72     198      48     204      78     207      48
     213      84     216      46     219      87     222      47     225      93
     228      47     231      96     234      46     237      99     240      48
     243     102     246      47     249     105     252      46     255     108
     258      46     261     111     264      46     267     114     270      46
%FLAG ANGLES_WITHOUT_HYDROGEN                                                   
%FORMAT(10I8)                                                                   
       0       3       6       1       0       3     117       2       3       6
       9       3       3     117     120       5       3     117     141       6
       6       3     117       7       6       9      12       8       6       9
     105       9       6       9     114       9       9      12      15      11
       9      12      18      12       9     105     108      13       9     114
     111      13      12       9     105      15      12       9     114      15
      12      18      21       3      15      12      18       1      18      21
      24       9      18      21      45       8      21      24      27      17
      21      45      48      11      21      45      51      12      24      21
      45      15      24      27      30      19      24      27      42      19
      27      30      33      21      27      42      39      21      30      27
      42      21      30      33      36      21      33      36      39      21
      36      39      42      21      45      51      54       3      48      45
      51       1      51      54      57       9      54      57      60      15
      57      60      63      11      57      60      66      24      60      66
      69      26      60      66     102      26      63      60      66      27
      66      69      72      28      66     102      99      28      69      66
     102      30      69      72      75      31      72      75      78      33
      72      75      99      33      75      78      81      31      75      99
     102      31      78      75      99      33      78      81      84      13
      78      81      96      13      81      84      87      13      81      96
      93      13      84      81      96      13      84      87      90      36
      87      90      93      37      90      93      96      36     105       9
     114      13     105     108     111      13     108     111     114      13
     117     120     123      39     117     141     138      41     120     117
     141      42     120     123     126      43     120     123     138      43
     123     126     129      21     123     138     135      21     123     138
     141      45     126     123     138      21     126     129     132      21
     129     132     135      21     132     135     138      21     135     138
     141      45
%FLAG DIHEDRALS_INC_HYDROGEN                                                    
%FORMAT(10I8)                                                                   
       0       3       6     144       2       0       3      -6     144       1
       3     117     120     273       9       6       9     105     249      15
       6       9     105     252      15       6       9     114     267      15
       6       9     114     270      15       9      12      18     147       1
       9     105     108     255      21       9     105     108     258      21
       9     114     111     261      21       9     114     111     264      21
      12       9       6     144      22      12       9     105     249      15
      12       9     105     252      15      12       9     114     267      15
      12       9     114     270      15      12      18      21     150      11
      15      12      18     147       2      15      12     -18     147       1
      18      21      24     153      15      18      21      24     156      15
      21      45      51     174       1      24      21      18     147      22
      24      27      30     159      30      24      27      42     171      30
      27      24      21     150      15      27      30      33     162      30
      27      42      39     168      30      30      27      24     153      11
      30      27      24     156      11      30      27      42     171      30
      30      33      36     165      30      33      36      39     168      30
      36      33      30     159      30      36      39      42     171      30
      39      36      33     162      30      42      39      36     165      30
      42      27      24     153      11      42      27      24     156      11
      42      27      30     159      30      45      21      18     147      22
      45      21      24     153      15      45      21      24     156      15
      45      51      54     177      11      45      51      54     180      11
      48      45      21     150      31      48      45     -21     150      32
      48      45      51     174       2      48      45     -51     174       1
      51      45      21     150      11      51      54      57     183      15
      51      54      57     186      15      57      54      51     174      22
      60      57      54     177      15      60      57      54     180      15
      60      66      69     189      11      60      66      69     192      11
      60      66     102     243      11      60      66     102     246      11
      63      60      57     183      33      63      60     -57     183      34
      63      60      57     186      33      63      60     -57     186      34
      66      60      57     183      11      66      60      57     186      11
      66      69      72     195      15      66      69      72     198      15
      66     102      99     237      15      66     102      99     240      15
      69      66     102     243      22      69      66     102     246      22
      69      72      75     201      15      72      75      78     204      15
      72      75      78     207      15      72      75      99     237      15
      72      75      99     240      15      75      72      69     189      15
      75      72      69     192      15      75      78      81     210      15
      75      99     102     243      15      75      99     102     246      15
      78      75      72     195      15      78      75      72     198      15
      78      75      99     237      15      78      75      99     240      15
      78      81      84     213      21      78      81      84     216      21
      78      81      96     231      21      78      81      96     234      21
      81      78      75     201      15      81      84      87     219      15
      81      84      87     222      15      81      96      93     225      15
      81      96      93     228      15      84      81      78     204      15
      84      81      78     207      15      84      81      96     231      21
      84      81      96     234      21      87      84      81     210      21
      87      90      93     225      39      87      90      93     228      39
      90      87      84     213      40      90      87     -84     213      41
      90      87      84     216      40      90      87     -84     216      41
      90      93      96     231      40      90      93     -96     231      41
      90      93      96     234      40      90      93     -96     234      41
      93      90      87     219      39      93      90      87     222      39
      93      96      81     210      21      96      81      78     204      15
      96      81      78     207      15      96      81      84     213      21
      96      81      84     216      21      99      75      72     195      15
      99      75      72     198      15      99      75      78     204      15
      99      75      78     207      15     102      99      75     201      15
     102      66      69     189      22     102      66      69     192      22
     105       9       6     144      22     105       9     114     267      21
     105       9     114     270      21     105     108     111     261      21
     105     108     111     264      21     108     111     114     267      21
     108     111     114     270      21     111     108     105     249      21
     111     108     105     252      21     114     111     108     255      21
     114     111     108     258      21     114       9       6     144      22
     114       9     105     249      21     114       9     105     252      21
     117       3       6     144       1     120     123     126     276      30
     123     126     129     279      30     123     138     135     285      30
     126     123     120     273      44     126     129     132     282      30
     129     132     135     285      30     132     129     126     276      30
     135     132     129     279      30     138     135     132     282      30
     138     123     120     273      44     138     123     126     276      30
     141     138     135     285      30     141     117     120     273       9
     147      18      21     150      22     150      21      24     153      15
     150      21      24     156      15     159      30      33     162      30
     162      33      36     165      30     165      36      39     168      30
     168      39      42     171      30     174      51      54     177      22
     174      51      54     180      22     177      54      57     183      15
     177      54      57     186      15     180      54      57     183      15
     180      54      57     186      15     189      69      72     195      15
     189      69      72     198      15     192      69      72     195      15
     192      69      72     198      15     195      72      75     201      45
     198      72      75     201      45     201      75      78     204      45
     201      75      78     207      45     201      75      99     237      45
     201      75      99     240      45     204      78      81     210      15
     207      78      81     210      15     210      81      84     213      46
     210      81      84     216      46     210      81      96     231      46
     210      81      96     234      46     213      84      87     219      15
     213      84      87     222      15     216      84      87     219      15
     216      84      87     222      15     225      93      96     231      15
     225      93      96     234      15     228      93      96     231      15
     228      93      96     234      15     237      99     102     243      15
     237      99     102     246      15     240      99     102     243      15
     240      99     102     246      15     249     105     108     255      46
     249     105     108     258      46     252     105     108     255      46
     252     105     108     258      46     255     108     111     261      46
     255     108     111     264      46     258     108     111     261      46
     258     108     111     264      46     261     111     114     267      46
     261     111     114     270      46     264     111     114     267      46
     264     111     114     270      46     276     126     129     279      30
     279     129     132     282      30     282     132     135     285      30
       3       9      -6    -144      48      12      21     -18    -147      48
      27      33     -30    -159      48      30      36     -33    -162      48
      33      39     -36    -165      48      36      42     -39    -168      48
      27      39     -42    -171      48      45      54     -51    -174      48
     123     117    -120    -273      48     123     129    -126    -276      48
     126     132    -129    -279      48     129     135    -132    -282      48
     132     138    -135    -285      48
%FLAG DIHEDRALS_WITHOUT_HYDROGEN                                                
%FORMAT(10I8)                                                                   
       0       3       6       9       1       0       3     117     120       3
       0       3     117     141       3       3       6       9      12       4
       3       6      -9      12       5       3       6       9     105       6
       3       6      -9     105       7       3       6      -9     105       8
       3       6       9     114       6       3       6      -9     114       7
       3       6      -9     114       8       3     117     120     123       9
       3     117     141     138      10       6       3     117     120       3
       6       3     117     141       3       6       9      12      15      11
       6       9      12      18      12       6       9     -12      18      13
       6       9     105     108      14       6       9     114     111      14
       9       6       3     117       1       9      12      18      21      16
       9      12     -18      21      17       9     105    -108     111      18
       9     105    -108     111      19       9     105    -108     111      20
       9     114    -111     108      18       9     114    -111     108      19
       9     114    -111     108      20      12       9     105     108      14
      12       9     114     111      14      12      18      21      24       6
      12      18     -21      24       7      12      18     -21      24       8
      12      18      21      45       4      12      18     -21      45       5
      15      12       9     105      23      15      12      -9     105      24
      15      12      -9     105      25      15      12       9     114      23
      15      12      -9     114      24      15      12      -9     114      25
      15      12      18      21       1      18      12       9     105      26
      18      12      -9     105      27      18      12       9     114      26
      18      12      -9     114      27      18      21      24      27      28
      18      21      45      48      11      18      21      45      51      12
      18      21     -45      51      13      21      24      27      30      29
      21      24      27      42      29      21      45      51      54      16
      21      45     -51      54      17      24      21      45      48      23
      24      21     -45      48      24      24      21     -45      48      25
      24      21      45      51      26      24      21     -45      51      27
      24      27      30      33      30      24      27      42      39      30
      27      24      21      45      14      27      30      33      36      30
      27      42     -39      36      30      30      27      42      39      30
      30      33     -36      39      30      33      30      27      42      30
      33      36     -39      42      30      45      51      54      57       6
      45      51     -54      57       7      45      51     -54      57       8
      48      45      51      54       1      51      54      57      60      28
      54      57      60      63      23      54      57     -60      63      24
      54      57     -60      63      25      54      57      60      66      26
      54      57     -60      66      27      57      60      66      69      16
      57      60     -66      69      17      57      60      66     102      16
      57      60     -66     102      17      60      66      69      72       6
      60      66     -69      72       7      60      66     -69      72       8
      60      66     102      99       6      60      66    -102      99       7
      60      66    -102      99       8      63      60      66      69       1
      63      60      66     102       1      66      69      72      75      15
      66     102     -99      75      15      69      66     102      99      22
      69      72      75      78      35      69      72     -75      99      35
      72      69      66     102      22      72      75      78      81      35
      72      75     -99     102      35      75      78      81      84      28
      75      78      81      96      28      78      75      99     102      35
      78      81      84      87      18      78      81     -84      87      19
      78      81     -84      87      20      78      81      96      93      18
      78      81     -96      93      19      78      81     -96      93      20
      81      78      75      99      35      81      84      87      90      15
      81      96     -93      90      15      84      81      96      93      18
      84      81     -96      93      19      84      81     -96      93      20
      84      87     -90      93      36      84      87     -90      93      37
      84      87     -90      93      38      87      84      81      96      18
      87      84     -81      96      19      87      84     -81      96      20
      87      90     -93      96      36      87      90     -93      96      37
      87      90     -93      96      38     105       9    -114     111      18
     105       9    -114     111      19     105       9    -114     111      20
     105     108    -111     114      18     105     108    -111     114      19
     105     108    -111     114      20     108     105      -9     114      18
     108     105      -9     114      19     108     105      -9     114      20
     117     120     123     126      42     117     120    -123     138      42
     117     141     138     135      43     117     141    -138     123      43
     120     117    -141     138      10     120     123     126     129      30
     120     123     138     135      30     120     123    -138     141      30
     123     120    -117     141       9     123     126     129     132      30
     123     138    -135     132      30     126     123     138     135      30
     126     123     138     141      30     126     129    -132     135      30
     129     126     123     138      30     129     132    -135     138      30
     132     135     138     141      30       0       3      -6    -117      47
       9      18     -12     -15      47      30      42     -27     -24      48
      21      51     -45     -48      47      57      66     -60     -63      47
      60      69     -66    -102      48       3     120    -117    -141      48
     126     138    -123    -120      48     123     135    -138    -141      48
%FLAG EXCLUDED_ATOMS_LIST                                                       
%FORMAT(10I8)                                                                   
       2       3       4      40      41      48      49       3       4       5
      36      39      40      41      42      47      48      49      92       4
       5       6       7      36      37      38      39      40      41      48
      49      84      85      90      91       5       6       7       8      36
      37      38      39      40      49      50      84      85      86      87
      88      89      90      91       6       7       8       9      16      36
      37      38      39      49      50      51      84      85      90      91
       7       8      36      39      50       8       9      10      16      17
      18      36      39      50      51      52      53       9      10      11
      15      16      17      18      19      50      51      52      53      59
      10      11      12      14      15      16      17      18      50      51
      52      53      54      58      11      12      13      14      15      16
      51      52      53      54      55      57      58      12      13      14
      15      52      53      54      55      56      58      13      14      15
      54      55      56      57      14      15      54      55      56      57
      58      15      55      56      57      58      52      53      54      56
      57      58      17      18      19      20      50      51      52      53
      59      60      61      18      19      51      59      19      20      21
      51      59      60      61      62      63      20      21      22      23
      59      60      61      62      63      21      22      23      24      35
      59      60      61      62      63      22      23      24      25      34
      35      60      61      62      63      64      65      82      83      23
      24      35      62      63      24      25      26      34      35      62
      63      64      65      66      67      80      81      82      83      25
      26      27      34      35      64      65      66      67      68      82
      83      26      27      28      34      35      64      65      66      67
      68      69      70      80      81      27      28      29      33      34
      35      64      65      66      67      68      69      70      71      80
      81      82      83      28      29      30      32      33      34      35
      66      67      68      69      70      71      72      73      78      79
      80      81      29      30      31      32      33      34      68      69
      70      71      72      73      74      75      76      77      78      79
      30      31      32      33      69      70      71      72      73      74
      75      78      79      31      32      33      71      72      73      74
      75      76      77      32      33      72      73      74      75      76
      77      78      79      33      71      74      75      76      77      78
      79      69      70      71      72      73      76      77      78      79
      35      66      67      68      69      70      80      81      82      83
      64      65      68      80      81      82      83      37      38      39
      49      84      85      86      87      88      89      90      91      38
      39      84      85      86      87      88      89      90      91      39
      84      85      86      87      88      89      90      91      49      84
      85      86      87      88      89      90      91      41      42      43
      46      47      48      49      92      42      43      44      46      47
      48      92      93      43      44      45      46      47      48      92
      93      94      96      44      45      46      47      48      92      93
      94      95      45      46      47      93      94      95      96      46
      47      48      93      94      95      96      47      48      94      95
      96      48      92      93      95      96      92      96       0      51
      52      53      53       0      55      56      57      58       0      60
      61      61      62      63      62      63      63       0      65      66
      67      66      67      67      68      68      69      70      80      81
      70      71      71      72      73      78      79      73      74      75
      74      75      75       0      77      78      79      78      79      79
       0      81      82      83      82      83      83       0      85      86
      87      86      87      87      88      89      88      89      89      90
      91      90      91      91       0       0      94      95      96       0
%FLAG HBOND_ACOEF                                                               
%FORMAT(5E16.8)                                                                 

%FLAG HBOND_BCOEF                                                               
%FORMAT(5E16.8)                                                                 

%FLAG HBCUT                                                                     
%FORMAT(5E16.8)                                                                 

%FLAG AMBER_ATOM_TYPE                                                           
%FORMAT(20a4)                                                                   
o   c   ns  c3  c   o   ns  c3  c3  ca  ca  ca  ca  ca  ca  c   o   ns  c3  c3  
c   o   n   c3  c3  nx  c3  c3  c3  c3  os  c3  c3  c3  c3  c3  c3  c3  c3  cc  
cd  ca  ca  ca  ca  ca  ca  ss  hn  hn  h1  hc  hc  ha  ha  ha  ha  ha  hn  h1  
h1  hc  hc  h1  h1  hx  hx  hn  hx  hx  hc  hc  hc  h1  h1  h1  h1  hc  hc  hx  
hx  h1  h1  hc  hc  hc  hc  hc  hc  hc  hc  ha  ha  ha  ha  ha  
%FLAG TREE_CHAIN_CLASSIFICATION                                                 
%FORMAT(20a4)                                                                   
BLA BLA BLA BLA BLA BLA BLA BLA BLA BLA BLA BLA BLA BLA BLA BLA BLA BLA BLA BLA 
BLA BLA BLA BLA BLA BLA BLA BLA BLA BLA BLA BLA BLA BLA BLA BLA BLA BLA BLA BLA 
BLA BLA BLA BLA BLA BLA BLA BLA BLA BLA BLA BLA BLA BLA BLA BLA BLA BLA BLA BLA 
BLA BLA BLA BLA BLA BLA BLA BLA BLA BLA BLA BLA BLA BLA BLA BLA BLA BLA BLA BLA 
BLA BLA BLA BLA BLA BLA BLA BLA BLA BLA BLA BLA BLA BLA BLA BLA 
%FLAG JOIN_ARRAY                                                                
%FORMAT(10I8)                                                                   
       0       0       0       0       0       0       0       0       0       0
       0       0       0       0       0       0       0       0       0       0
       0       0       0       0       0       0       0       0       0       0
       0       0       0       0       0       0       0       0       0       0
       0       0       0       0       0       0       0       0       0       0
       0       0       0       0       0       0       0       0       0       0
       0       0       0       0       0       0       0       0       0       0
       0       0       0       0       0       0       0       0       0       0
       0       0       0       0       0       0       0       0       0       0
       0       0       0       0       0       0
%FLAG IROTAT                                                                    
%FORMAT(10I8)                                                                   
       0       0       0       0       0       0       0       0       0       0
       0       0       0       0       0       0       0       0       0       0
       0       0       0       0       0       0       0       0       0       0
       0       0       0       0       0       0       0       0       0       0
       0       0       0       0       0       0       0       0       0       0
       0       0       0       0       0       0       0       0       0       0
       0       0       0       0       0       0       0       0       0       0
       0       0       0       0       0       0       0       0       0       0
       0       0       0       0       0       0       0       0       0       0
       0       0       0       0       0       0
%FLAG RADIUS_SET                                                                
%FORMAT(1a80)                                                                   
modified Bondi radii (mbondi)                                                   
%FLAG RADII                                                                     
%FORMAT(5E16.8)                                                                 
  1.50000000E+00  1.70000000E+00  1.55000000E+00  1.70000000E+00  1.70000000E+00
  1.50000000E+00  1.55000000E+00  1.70000000E+00  1.70000000E+00  1.70000000E+00
  1.70000000E+00  1.70000000E+00  1.70000000E+00  1.70000000E+00  1.70000000E+00
  1.70000000E+00  1.50000000E+00  1.55000000E+00  1.70000000E+00  1.70000000E+00
  1.70000000E+00  1.50000000E+00  1.55000000E+00  1.70000000E+00  1.70000000E+00
  1.55000000E+00  1.70000000E+00  1.70000000E+00  1.70000000E+00  1.70000000E+00
  1.50000000E+00  1.70000000E+00  1.70000000E+00  1.70000000E+00  1.70000000E+00
  1.70000000E+00  1.70000000E+00  1.70000000E+00  1.70000000E+00  1.70000000E+00
  1.70000000E+00  1.70000000E+00  1.70000000E+00  1.70000000E+00  1.70000000E+00
  1.70000000E+00  1.70000000E+00  1.80000000E+00  1.30000000E+00  1.30000000E+00
  1.30000000E+00  1.30000000E+00  1.30000000E+00  1.30000000E+00  1.30000000E+00
  1.30000000E+00  1.30000000E+00  1.30000000E+00  1.30000000E+00  1.30000000E+00
  1.30000000E+00  1.30000000E+00  1.30000000E+00  1.30000000E+00  1.30000000E+00
  1.30000000E+00  1.30000000E+00  1.30000000E+00  1.30000000E+00  1.30000000E+00
  1.30000000E+00  1.30000000E+00  1.30000000E+00  1.30000000E+00  1.30000000E+00
  1.30000000E+00  1.30000000E+00  1.30000000E+00  1.30000000E+00  1.30000000E+00
  1.30000000E+00  1.30000000E+00  1.30000000E+00  1.30000000E+00  1.30000000E+00
  1.30000000E+00  1.30000000E+00  1.30000000E+00  1.30000000E+00  1.30000000E+00
  1.30000000E+00  1.30000000E+00  1.30000000E+00  1.30000000E+00  1.30000000E+00
  1.30000000E+00
%FLAG SCREEN                                                                    
%FORMAT(5E16.8)                                                                 
  8.50000000E-01  7.20000000E-01  7.90000000E-01  7.20000000E-01  7.20000000E-01
  8.50000000E-01  7.90000000E-01  7.20000000E-01  7.20000000E-01  7.20000000E-01
  7.20000000E-01  7.20000000E-01  7.20000000E-01  7.20000000E-01  7.20000000E-01
  7.20000000E-01  8.50000000E-01  7.90000000E-01  7.20000000E-01  7.20000000E-01
  7.20000000E-01  8.50000000E-01  7.90000000E-01  7.20000000E-01  7.20000000E-01
  7.90000000E-01  7.20000000E-01  7.20000000E-01  7.20000000E-01  7.20000000E-01
  8.50000000E-01  7.20000000E-01  7.20000000E-01  7.20000000E-01  7.20000000E-01
  7.20000000E-01  7.20000000E-01  7.20000000E-01  7.20000000E-01  7.20000000E-01
  7.20000000E-01  7.20000000E-01  7.20000000E-01  7.20000000E-01  7.20000000E-01
  7.20000000E-01  7.20000000E-01  9.60000000E-01  8.50000000E-01  8.50000000E-01
  8.50000000E-01  8.50000000E-01  8.50000000E-01  8.50000000E-01  8.50000000E-01
  8.50000000E-01  8.50000000E-01  8.50000000E-01  8.50000000E-01  8.50000000E-01
  8.50000000E-01  8.50000000E-01  8.50000000E-01  8.50000000E-01  8.50000000E-01
  8.50000000E-01  8.50000000E-01  8.50000000E-01  8.50000000E-01  8.50000000E-01
  8.50000000E-01  8.50000000E-01  8.50000000E-01  8.50000000E-01  8.50000000E-01
  8.50000000E-01  8.50000000E-01  8.50000000E-01  8.50000000E-01  8.50000000E-01
  8.50000000E-01  8.50000000E-01  8.50000000E-01  8.50000000E-01  8.50000000E-01
  8.50000000E-01  8.50000000E-01  8.50000000E-01  8.50000000E-01  8.50000000E-01
  8.50000000E-01  8.50000000E-01  8.50000000E-01  8.50000000E-01  8.50000000E-01
  8.50000000E-01
%FLAG IPOL                                                                      
%FORMAT(1I8)                                                                    
       0
