MOL
    96
   0.5840000  -1.8650000  -2.3970000   1.7030000  -2.1740000  -1.9810000
   1.8780000  -2.6940000  -0.7200000   0.8090000  -3.0490000   0.2250000
   0.0940000  -1.7640000   0.7210000   0.3000000  -1.2400000   1.8150000
  -0.7370000  -1.1860000  -0.2140000  -1.4150000   0.0780000   0.0370000
  -2.6070000   0.2990000  -0.9020000  -3.7590000  -0.6270000  -0.5930000
  -3.8840000  -1.8550000  -1.2570000  -4.9330000  -2.7210000  -0.9470000
  -5.8640000  -2.3700000   0.0270000  -5.7510000  -1.1510000   0.6920000
  -4.7030000  -0.2820000   0.3840000  -0.3960000   1.2200000  -0.1550000
  -0.3690000   2.2100000   0.5830000   0.4090000   1.0930000  -1.2720000
   1.4100000   2.0700000  -1.6410000   2.8190000   1.7520000  -1.1450000
   2.8770000   1.0830000   0.2160000   3.0870000  -0.1300000   0.2860000
   2.6760000   1.8480000   1.3510000   2.6340000   1.1830000   2.6560000
   1.3320000   1.4780000   3.4260000   0.7360000   2.8400000   3.0560000
  -0.1610000   3.4320000   4.1120000  -1.3100000   2.5160000   4.5480000
  -2.3320000   2.2340000   3.4480000  -3.4340000   1.2970000   3.9500000
  -3.5350000   1.2880000   5.3720000  -3.4540000   2.5920000   5.9310000
  -2.0380000   3.1390000   5.7580000   1.8140000   3.8220000   2.6310000
   2.5460000   3.3060000   1.3790000  -0.1630000  -4.1010000  -0.3310000
   0.5560000  -5.4390000  -0.1750000   1.6040000  -5.2370000   0.9150000
   1.4090000  -3.8120000   1.4200000   2.9110000  -1.9490000  -2.7610000
   2.9800000  -1.4100000  -4.0300000   4.3190000  -1.2930000  -4.5300000
   4.8020000  -0.7930000  -5.7620000   6.1740000  -0.7810000  -6.0310000
   7.0760000  -1.2600000  -5.0920000   6.6280000  -1.7610000  -3.8680000
   5.2450000  -1.7720000  -3.6020000   4.4670000  -2.3430000  -2.1780000
   2.8340000  -2.7110000  -0.3770000  -0.7300000  -1.5780000  -1.1560000
  -1.7320000   0.0880000   1.0850000  -2.9590000   1.3370000  -0.8270000
  -2.3060000   0.1690000  -1.9510000  -3.1690000  -2.1480000  -2.0230000
  -5.0260000  -3.6710000  -1.4680000  -6.6830000  -3.0450000   0.2650000
  -6.4830000  -0.8770000   1.4480000  -4.6360000   0.6670000   0.9090000
   0.3500000   0.2280000  -1.8080000   1.4170000   2.1190000  -2.7360000
   1.0850000   3.0530000  -1.2910000   3.2920000   1.0600000  -1.8530000
   3.4430000   2.6520000  -1.1510000   3.4910000   1.5610000   3.2260000
   2.7690000   0.1000000   2.5750000   0.5570000   0.7470000   3.1910000
   1.5230000   1.4700000   4.5040000   0.1810000   2.6570000   2.1900000
  -0.5580000   4.3660000   3.6970000   0.4820000   3.6760000   4.9660000
  -0.8960000   1.5550000   4.8830000  -1.8700000   1.7960000   2.5640000
  -2.7860000   3.1780000   3.1200000  -4.4030000   1.5710000   3.5170000
  -3.2200000   0.2690000   3.6390000  -4.1940000   3.2450000   5.4510000
  -3.7100000   2.5360000   6.9940000  -2.0870000   4.2320000   5.6850000
  -1.4520000   2.9210000   6.6600000   1.3400000   4.7880000   2.4270000
   2.4990000   3.9290000   3.4800000   2.0210000   3.6530000   0.4900000
   3.5550000   3.7320000   1.3350000  -0.4590000  -3.9370000  -1.3720000
  -1.0860000  -4.1160000   0.2630000  -0.1490000  -6.2360000   0.0840000
   1.0440000  -5.7260000  -1.1130000   2.6080000  -5.3590000   0.4930000
   1.4990000  -5.9670000   1.7250000   0.7100000  -3.8230000   2.2660000
   2.3490000  -3.3800000   1.7800000   2.1010000  -1.1070000  -4.5880000
   4.1060000  -0.4200000  -6.5110000   6.5340000  -0.3990000  -6.9840000
   8.1420000  -1.2520000  -5.3110000   7.3370000  -2.1420000  -3.1380000
