MOL
    75
  -4.6300000   3.9720000   2.2850000  -3.6620000   3.0900000   2.0090000
  -3.8330000   1.6880000   1.7070000  -2.8750000   0.7580000   1.4850000
  -1.4020000   0.9700000   1.6200000  -3.4690000  -0.5280000   1.1560000
  -2.9750000  -1.7210000   0.8040000  -1.5630000  -2.0460000   0.5340000
  -0.7620000  -1.3550000  -0.2170000   0.4170000  -2.0800000  -0.2600000
   1.5360000  -1.6980000  -0.9070000   1.6880000  -0.4720000  -1.6240000
   0.6150000   0.3760000  -1.7350000   0.9690000   1.5350000  -2.3660000
  -0.0040000   2.5540000  -2.4530000  -0.1570000   3.5110000  -1.5250000
  -1.1720000   4.4220000  -1.6020000  -1.1830000   5.2670000  -0.5260000
  -1.9700000   6.1670000  -0.2990000  -0.0340000   4.8720000   0.3210000
   0.3030000   5.6600000   1.5300000   0.5600000   3.8170000  -0.2820000
   1.7840000   3.2080000   0.2020000   1.9990000   2.7590000   1.4450000
   2.2790000   1.3990000  -2.7900000   3.0710000   2.4040000  -3.5530000
   2.7560000   0.1400000  -2.2720000   4.1640000  -0.3840000  -2.3820000
   5.0680000   0.0850000  -1.2460000   5.6890000   1.4560000  -1.4930000
   5.6250000   2.2610000  -0.5200000   6.2410000   1.6190000  -2.6200000
   0.2200000  -3.2950000   0.5220000   1.2500000  -4.3770000   0.6950000
   1.1180000  -5.4920000  -0.3410000   0.0470000  -6.4890000   0.0940000
   0.3390000  -7.1910000   1.1040000  -1.0070000  -6.4980000  -0.6030000
  -1.0070000  -3.2960000   1.0650000  -1.7010000  -4.2520000   1.9560000
  -4.8160000  -0.3340000   1.2580000  -5.1360000   0.9650000   1.5640000
  -6.2630000   1.4080000   1.6940000  -5.6800000   3.7010000   2.3190000
  -4.3830000   5.0120000   2.4740000  -2.6430000   3.4690000   1.9860000
  -1.1650000   1.8630000   2.2060000  -0.9410000   1.0950000   0.6390000
  -0.9260000   0.1380000   2.1470000  -3.6460000  -2.5590000   0.6370000
   2.4100000  -2.3410000  -0.8790000  -0.2860000   0.1680000  -1.3200000
  -0.6720000   2.5100000  -3.3070000  -1.8580000   4.4690000  -2.3380000
  -0.4140000   5.4500000   2.3300000   1.3070000   5.4460000   1.9060000
   0.2670000   6.7320000   1.3120000   2.5830000   3.0750000  -0.5280000
   1.2560000   2.8130000   2.2280000   2.9550000   2.2940000   1.6760000
   3.7840000   1.9190000  -4.2260000   3.6200000   3.0580000  -2.8700000
   2.4190000   3.0310000  -4.1690000   4.1260000  -1.4800000  -2.3630000
   4.5770000  -0.1260000  -3.3640000   4.5350000   0.0740000  -0.2880000
   5.9080000  -0.6150000  -1.1510000   1.1900000  -4.7830000   1.7130000
   2.2560000  -3.9470000   0.6330000   0.9020000  -5.0940000  -1.3390000
   2.0660000  -6.0380000  -0.4110000  -2.5090000  -4.7610000   1.4210000
  -2.1340000  -3.7280000   2.8150000  -1.0260000  -5.0120000   2.3560000
  -5.5240000  -1.0320000   1.0910000
