%VERSION  VERSION_STAMP = V0001.000  DATE = 07/11/26  13:49:30                  
%FLAG TITLE                                                                     
%FORMAT(20a4)                                                                   
MOL                                                                             
%FLAG POINTERS                                                                  
%FORMAT(10I8)                                                                   
      75       9      32      46      66      67     112     116       0       0
     387       1      46      67     116      25      51      22      14       0
       0       0       0       0       0       0       0       0      75       0
       0
%FLAG ATOM_NAME                                                                 
%FORMAT(20a4)                                                                   
C1  C2  C3  C4  C5  C6  C7  C8  N1  C9  C10 C11 N2  C12 C13 C14 N3  C15 O1  C16 
C17 C18 C19 C20 C21 C22 C23 C24 C25 C26 O2  O3  C27 C28 C29 C30 O4  O5  C31 C32 
N4  C33 O6  H1  H2  H3  H4  H5  H6  H7  H8  H9  H10 H11 H12 H13 H14 H15 H16 H17 
H18 H19 H20 H21 H22 H23 H24 H25 H26 H27 H28 H29 H30 H31 H32 
%FLAG CHARGE                                                                    
%FORMAT(5E16.8)                                                                 
 -3.99068370E+00 -1.80400770E+00 -3.37476996E+00  4.88357640E-01 -1.20084957E+00
  2.47823280E-01 -2.90827908E+00  8.08887897E+00 -1.09570690E+01  8.38225800E-02
  1.23547194E+00 -2.40716583E+00 -2.57116653E+00 -1.64182923E+00 -1.93520826E+00
  9.40270680E-01 -9.36808443E+00  1.27865879E+01 -1.17442723E+01 -3.99797262E+00
 -5.08402170E-01  9.84004200E-01 -3.24356940E+00 -2.76978960E+00 -2.13747579E+00
 -1.01680434E+00 -9.53026290E-01 -2.20489830E-01 -3.41485902E+00  1.65750041E+01
 -1.56766447E+01 -1.56766447E+01 -5.86758060E-01 -5.68535760E-01 -3.46952592E+00
  1.65203372E+01 -1.55581997E+01 -1.55581997E+01 -4.58837514E+00 -1.05507117E+00
 -9.25875063E+00  1.28776994E+01 -1.17807170E+01  2.17756485E+00  2.17756485E+00
  2.24134290E+00  1.24580398E+00  1.24580398E+00  1.24580398E+00  2.55112200E+00
  2.89734570E+00  5.71633551E+00  2.25956520E+00  5.87669175E+00  8.32759110E-01
  8.32759110E-01  8.32759110E-01  3.38934780E+00  2.51467740E+00  2.51467740E+00
  1.02713638E+00  1.02713638E+00  1.02713638E+00  8.32759110E-01  8.32759110E-01
  5.86758060E-01  5.86758060E-01  1.06053786E+00  1.06053786E+00  5.77646910E-01
  5.77646910E-01  9.96759810E-01  9.96759810E-01  9.96759810E-01  5.94958095E+00
%FLAG ATOMIC_NUMBER                                                             
%FORMAT(10I8)                                                                   
       6       6       6       6       6       6       6       6       7       6
       6       6       7       6       6       6       7       6       8       6
       6       6       6       6       6       6       6       6       6       6
       8       8       6       6       6       6       8       8       6       6
       7       6       8       1       1       1       1       1       1       1
       1       1       1       1       1       1       1       1       1       1
       1       1       1       1       1       1       1       1       1       1
       1       1       1       1       1
%FLAG MASS                                                                      
%FORMAT(5E16.8)                                                                 
  1.20100000E+01  1.20100000E+01  1.20100000E+01  1.20100000E+01  1.20100000E+01
  1.20100000E+01  1.20100000E+01  1.20100000E+01  1.40100000E+01  1.20100000E+01
  1.20100000E+01  1.20100000E+01  1.40100000E+01  1.20100000E+01  1.20100000E+01
  1.20100000E+01  1.40100000E+01  1.20100000E+01  1.60000000E+01  1.20100000E+01
  1.20100000E+01  1.20100000E+01  1.20100000E+01  1.20100000E+01  1.20100000E+01
  1.20100000E+01  1.20100000E+01  1.20100000E+01  1.20100000E+01  1.20100000E+01
  1.60000000E+01  1.60000000E+01  1.20100000E+01  1.20100000E+01  1.20100000E+01
  1.20100000E+01  1.60000000E+01  1.60000000E+01  1.20100000E+01  1.20100000E+01
  1.40100000E+01  1.20100000E+01  1.60000000E+01  1.00800000E+00  1.00800000E+00
  1.00800000E+00  1.00800000E+00  1.00800000E+00  1.00800000E+00  1.00800000E+00
  1.00800000E+00  1.00800000E+00  1.00800000E+00  1.00800000E+00  1.00800000E+00
  1.00800000E+00  1.00800000E+00  1.00800000E+00  1.00800000E+00  1.00800000E+00
  1.00800000E+00  1.00800000E+00  1.00800000E+00  1.00800000E+00  1.00800000E+00
  1.00800000E+00  1.00800000E+00  1.00800000E+00  1.00800000E+00  1.00800000E+00
  1.00800000E+00  1.00800000E+00  1.00800000E+00  1.00800000E+00  1.00800000E+00
%FLAG ATOM_TYPE_INDEX                                                           
%FORMAT(10I8)                                                                   
       1       1       1       1       2       1       1       1       3       1
       1       1       4       1       1       1       5       1       6       1
       2       1       1       1       1       2       1       2       2       1
       6       6       1       2       2       1       6       6       1       2
       5       1       6       7       7       7       8       8       8       7
       7       9       7       9       8       8       8       7       7       7
       8       8       8       8       8       8       8       8       8       8
       8       8       8       8       9
%FLAG NUMBER_EXCLUDED_ATOMS                                                     
%FORMAT(10I8)                                                                   
       7      10      14      13       7      12      10      12       9      12
      11      13      10      13      12      12       8       9       4       9
       5      10       4       3      11       5      12       8       7       6
       3       2      13      10       8       6       3       2       7       3
       4       3       1       2       1       1       2       1       1       1
       1       1       1       1       2       1       1       2       1       1
       2       1       1       3       2       1       1       3       2       1
       1       2       1       1       1
%FLAG NONBONDED_PARM_INDEX                                                      
%FORMAT(10I8)                                                                   
       1       2       4       7      11      16      22      29      37       2
       3       5       8      12      17      23      30      38       4       5
       6       9      13      18      24      31      39       7       8       9
      10      14      19      25      32      40      11      12      13      14
      15      20      26      33      41      16      17      18      19      20
      21      27      34      42      22      23      24      25      26      27
      28      35      43      29      30      31      32      33      34      35
      36      44      37      38      39      40      41      42      43      44
      45
%FLAG RESIDUE_LABEL                                                             
%FORMAT(20a4)                                                                   
MOL 
%FLAG RESIDUE_POINTER                                                           
%FORMAT(10I8)                                                                   
       1
%FLAG BOND_FORCE_CONSTANT                                                       
%FORMAT(5E16.8)                                                                 
  4.60500000E+02  3.92200000E+02  3.09800000E+02  3.91400000E+02  4.16100000E+02
  2.95400000E+02  2.62600000E+02  3.40200000E+02  3.75900000E+02  4.27700000E+02
  3.53800000E+02  4.50700000E+02  3.40200000E+02  3.69100000E+02  3.54500000E+02
  5.35100000E+02  3.56200000E+02  5.27300000E+02  6.52600000E+02  2.62600000E+02
  3.09800000E+02  4.60500000E+02  3.91400000E+02  2.32500000E+02  2.43200000E+02
%FLAG BOND_EQUIL_VALUE                                                          
%FORMAT(5E16.8)                                                                 
  1.34600000E+00  1.08800000E+00  1.45400000E+00  1.08800000E+00  1.37300000E+00
  1.46800000E+00  1.50200000E+00  1.42800000E+00  1.09700000E+00  1.36600000E+00
  1.38100000E+00  1.31700000E+00  1.42800000E+00  1.36900000E+00  1.38000000E+00
  1.01000000E+00  1.37900000E+00  1.01300000E+00  1.21800000E+00  1.50200000E+00
  1.45400000E+00  1.34600000E+00  1.08800000E+00  1.53800000E+00  1.52400000E+00
%FLAG ANGLE_FORCE_CONSTANT                                                      
%FORMAT(5E16.8)                                                                 
  6.76000000E+01  5.01000000E+01  5.00000000E+01  6.58000000E+01  6.54000000E+01
  4.80000000E+01  6.68000000E+01  7.03000000E+01  8.71000000E+01  8.67000000E+01
  6.72000000E+01  4.77000000E+01  6.80000000E+01  8.58000000E+01  6.67000000E+01
  6.53000000E+01  5.06000000E+01  6.66000000E+01  4.83000000E+01  8.62000000E+01
  8.59000000E+01  6.49000000E+01  7.39000000E+01  7.03000000E+01  6.67000000E+01
  9.03000000E+01  8.66000000E+01  8.53000000E+01  8.34000000E+01  7.05000000E+01
  4.71000000E+01  9.27000000E+01  6.49000000E+01  1.13800000E+02  4.87000000E+01
  6.54000000E+01  4.77000000E+01  6.58000000E+01  6.68000000E+01  6.76000000E+01
  4.80000000E+01  5.00000000E+01  5.01000000E+01  6.55000000E+01  6.53000000E+01
  4.68000000E+01  8.46000000E+01  4.74000000E+01  1.18800000E+02  3.77000000E+01
  3.90000000E+01
%FLAG ANGLE_EQUIL_VALUE                                                         
%FORMAT(5E16.8)                                                                 
  2.15234096E+00  2.09334880E+00  2.10224999E+00  2.23489507E+00  2.12179768E+00
  2.01480895E+00  2.08479669E+00  1.99299233E+00  1.96698691E+00  2.16298747E+00
  2.11795796E+00  1.92841512E+00  2.14186898E+00  2.09247614E+00  2.02405920E+00
  2.27957551E+00  2.00625684E+00  2.15146829E+00  2.08148056E+00  2.16769986E+00
  2.12406661E+00  2.21761630E+00  1.84114862E+00  1.99299233E+00  2.02405920E+00
  1.96454345E+00  2.16386013E+00  2.12895353E+00  2.17031785E+00  1.91811767E+00
  2.19038915E+00  1.86732857E+00  2.21761630E+00  2.14762857E+00  2.05163542E+00
  2.05530061E+00  1.92841512E+00  2.23489507E+00  2.08479669E+00  2.15234096E+00
  2.01480895E+00  2.10224999E+00  2.09334880E+00  1.95354787E+00  1.93801443E+00
  1.91637234E+00  2.15024656E+00  1.89839544E+00  2.27329233E+00  2.04029077E+00
  1.87762601E+00
%FLAG DIHEDRAL_FORCE_CONSTANT                                                   
%FORMAT(5E16.8)                                                                 
  5.00000000E-01  4.00000000E+00  2.87500000E+00  6.65000000E+00  0.00000000E+00
  2.50000000E+00  1.00000000E+00  8.51000000E+00  1.65000000E+00  4.75000000E+00
  1.70000000E+00  1.57000000E-01  2.00000000E+00  1.55555556E-01  7.40000000E-01
  2.70000000E-01  5.50000000E-01  8.30000000E-01  4.00000000E-02  1.20000000E-01
  1.10000000E+00  1.05000000E+01
%FLAG DIHEDRAL_PERIODICITY                                                      
%FORMAT(5E16.8)                                                                 
  2.00000000E+00  2.00000000E+00  2.00000000E+00  2.00000000E+00  3.00000000E+00
  2.00000000E+00  2.00000000E+00  2.00000000E+00  2.00000000E+00  2.00000000E+00
  2.00000000E+00  3.00000000E+00  1.00000000E+00  3.00000000E+00  1.00000000E+00
  2.00000000E+00  3.00000000E+00  1.00000000E+00  3.00000000E+00  3.00000000E+00
  2.00000000E+00  2.00000000E+00
%FLAG DIHEDRAL_PHASE                                                            
%FORMAT(5E16.8)                                                                 
  3.14159400E+00  3.14159400E+00  3.14159400E+00  3.14159400E+00  0.00000000E+00
  3.14159400E+00  3.14159400E+00  3.14159400E+00  3.14159400E+00  3.14159400E+00
  3.14159400E+00  3.14159400E+00  0.00000000E+00  0.00000000E+00  0.00000000E+00
  3.14159400E+00  3.14159400E+00  0.00000000E+00  3.14159400E+00  0.00000000E+00
  3.14159400E+00  3.14159400E+00
%FLAG SCEE_SCALE_FACTOR                                                         
%FORMAT(5E16.8)                                                                 
  1.20000000E+00  1.20000000E+00  1.20000000E+00  1.20000000E+00  1.20000000E+00
  1.20000000E+00  1.20000000E+00  1.20000000E+00  1.20000000E+00  1.20000000E+00
  1.20000000E+00  1.20000000E+00  1.20000000E+00  1.20000000E+00  1.20000000E+00
  1.20000000E+00  1.20000000E+00  1.20000000E+00  1.20000000E+00  1.20000000E+00
  0.00000000E+00  0.00000000E+00
%FLAG SCNB_SCALE_FACTOR                                                         
%FORMAT(5E16.8)                                                                 
  2.00000000E+00  2.00000000E+00  2.00000000E+00  2.00000000E+00  2.00000000E+00
  2.00000000E+00  2.00000000E+00  2.00000000E+00  2.00000000E+00  2.00000000E+00
  2.00000000E+00  2.00000000E+00  2.00000000E+00  2.00000000E+00  2.00000000E+00
  2.00000000E+00  2.00000000E+00  2.00000000E+00  2.00000000E+00  2.00000000E+00
  0.00000000E+00  0.00000000E+00
%FLAG SOLTY                                                                     
%FORMAT(5E16.8)                                                                 
  0.00000000E+00  0.00000000E+00  0.00000000E+00  0.00000000E+00  0.00000000E+00
  0.00000000E+00  0.00000000E+00  0.00000000E+00  0.00000000E+00  0.00000000E+00
  0.00000000E+00  0.00000000E+00  0.00000000E+00  0.00000000E+00
%FLAG LENNARD_JONES_ACOEF                                                       
%FORMAT(5E16.8)                                                                 
  6.96551276E+05  8.43969952E+05  1.02073671E+06  7.69642101E+05  9.31115275E+05
  8.49322032E+05  8.20152428E+05  9.96191545E+05  9.08092643E+05  9.62429652E+05
  6.99381362E+05  8.48258258E+05  7.73425391E+05  8.22346035E+05  7.01825028E+05
  5.17507491E+05  6.30925504E+05  5.74782316E+05  6.04208667E+05  5.17814271E+05
  3.76435470E+05  7.52549148E+04  9.27554496E+04  8.43518904E+04  8.65595848E+04
  7.48403283E+04  5.27277400E+04  6.90855956E+03  8.12662403E+04  1.00235148E+05
  9.11435380E+04  9.33839501E+04  8.07866982E+04  5.68021765E+04  7.41026906E+03
  7.94617769E+03  1.71458823E+03  2.23577481E+03  2.01475241E+03  1.82491629E+03
  1.65195713E+03  9.87857350E+02  9.04434904E+01  9.47421632E+01  1.34728399E-01
%FLAG LENNARD_JONES_BCOEF                                                       
%FORMAT(5E16.8)                                                                 
  5.24668528E+02  5.90251928E+02  6.63431737E+02  5.44830041E+02  6.12468585E+02
  5.65406768E+02  6.82622272E+02  7.68900328E+02  7.09588248E+02  8.86629877E+02
  5.48900066E+02  6.17825399E+02  5.70234696E+02  7.13654906E+02  5.74088001E+02
  4.98871431E+02  5.62969425E+02  5.19385932E+02  6.46321327E+02  5.21008860E+02
  4.69350655E+02  1.09570372E+02  1.24325688E+02  1.14599119E+02  1.40899023E+02
  1.14083104E+02  1.01173582E+02  2.10929191E+01  1.21392023E+02  1.37787728E+02
  1.27000718E+02  1.56025608E+02  1.26366740E+02  1.11953944E+02  2.32899892E+01
  2.57122925E+01  1.46824710E+01  1.71355763E+01  1.57231024E+01  1.81620725E+01
  1.50468782E+01  1.22938581E+01  2.14252117E+00  2.33785449E+00  7.34107347E-02
%FLAG BONDS_INC_HYDROGEN                                                        
%FORMAT(10I8)                                                                   
       0     129       2       0     132       2       3     135       4      12
     138       9      12     141       9      12     144       9      18     147
       4      30     150       4      36     153      16      42     156       4
      48     159      18      60     162       9      60     165       9      60
     168       9      66     171      23      69     174       2      69     177
       2      75     180       9      75     183       9      75     186       9
      81     189       9      81     192       9      84     195       9      84
     198       9      99     201       9      99     204       9     102     207
       9     102     210       9     117     213       9     117     216       9
     117     219       9     120     222      18
%FLAG BONDS_WITHOUT_HYDROGEN                                                    
%FORMAT(10I8)                                                                   
       0       3       1       3       6       3       6       9       5       6
     123       6       9      12       7       9      15       8      15      18
      10      15     120      11      18      21       3      21      24      12
      21     114      13      24      27      14      27      30      10      27
      96       8      30      33       3      33      36      15      33      78
       5      36      39      15      39      42       3      39      72       5
      42      45      10      45      48      11      45      63       8      48
      51      17      51      54      19      51      57       6      57      60
      20      57      63       5      63      66      21      66      69      22
      72      75       7      72      78       8      78      81       7      81
      84      24      84      87      25      87      90      19      87      93
      19      96      99       7      96     114       5      99     102      24
     102     105      25     105     108      19     105     111      19     114
     117      20     120     123      17     123     126      19
%FLAG ANGLES_INC_HYDROGEN                                                       
%FORMAT(10I8)                                                                   
       0       3     135       2       3       0     129       3       3       0
     132       3       6       3     135       6       9      12     138      12
       9      12     141      12       9      12     144      12      15      18
     147      17      15     120     222      19      21      18     147       6
      27      30     150      17      33      30     150       6      33      36
     153      31      39      36     153      31      39      42     156       6
      45      42     156      17      45      48     159      19      51      48
     159      35      57      60     162      37      57      60     165      37
      57      60     168      37      63      66     171      41      66      69
     174      42      66      69     177      42      69      66     171      43
      72      75     180      12      72      75     183      12      72      75
     186      12      78      81     189      12      78      81     192      12
      81      84     195      46      81      84     198      46      84      81
     189      46      84      81     192      46      87      84     195      48
      87      84     198      48      96      99     201      12      96      99
     204      12      99     102     207      46      99     102     210      46
     102      99     201      46     102      99     204      46     105     102
     207      48     105     102     210      48     114     117     213      37
     114     117     216      37     114     117     219      37     123     120
     222      35     129       0     132      50     138      12     141      51
     138      12     144      51     141      12     144      51     162      60
     165      51     162      60     168      51     165      60     168      51
     174      69     177      50     180      75     183      51     180      75
     186      51     183      75     186      51     189      81     192      51
     195      84     198      51     201      99     204      51     207     102
     210      51     213     117     216      51     213     117     219      51
     216     117     219      51
%FLAG ANGLES_WITHOUT_HYDROGEN                                                   
%FORMAT(10I8)                                                                   
       0       3       6       1       3       6       9       4       3       6
     123       5       6       9      12       7       6       9      15       8
       6     123     120       9       6     123     126      10       9       6
     123      11       9      15      18      13       9      15     120      14
      12       9      15      15      15      18      21      16      15     120
     123      18      18      15     120      20      18      21      24      21
      18      21     114      22      21      24      27      23      21     114
      96      24      21     114     117      25      24      21     114      26
      24      27      30      27      24      27      96      28      27      30
      33      16      27      96      99      15      27      96     114       8
      30      27      96      13      30      33      36      29      30      33
      78       4      33      36      39      30      33      78      72       8
      33      78      81       7      36      33      78      32      36      39
      42      29      36      39      72      32      39      42      45      16
      39      72      75       7      39      72      78       8      42      39
      72       4      42      45      48      20      42      45      63      13
      45      48      51      18      45      63      57       8      45      63
      66      33      48      45      63      14      48      51      54      34
      48      51      57       9      51      57      60      36      51      57
      63      11      54      51      57      10      57      63      66      38
      60      57      63      39      63      66      69      40      72      78
      81      15      75      72      78      15      78      81      84      44
      81      84      87      45      84      87      90      47      84      87
      93      47      90      87      93      49      96      99     102      44
      96     114     117      39      99      96     114       7      99     102
     105      45     102     105     108      47     102     105     111      47
     108     105     111      49     120     123     126      34
%FLAG DIHEDRALS_INC_HYDROGEN                                                    
%FORMAT(10I8)                                                                   
     129       0       3       6       4     132       0       3       6       4
       6       9      12     138       5       6       9      12     141       5
       6       9      12     144       5       6     123     120     222       6
       9       6       3     135       7       9      15      18     147       2
       9      15     120     222       9      15       9      12     138       5
      15       9      12     141       5      15       9      12     144       5
      18      15     120     222       9      21     114     117     213       5
      21     114     117     216       5      21     114     117     219       5
      24      21      18     147       7      24      27      30     150       2
      27      96      99     201       5      27      96      99     204       5
      30      33      36     153      11      33      78      81     189       5
      33      78      81     192       5      36      33      30     150       7
      36      39      42     156       7      39      72      75     180       5
      39      72      75     183       5      39      72      75     186       5
      42      39      36     153      11      42      45      48     159       9
      45      63      66     171       7      48      45      42     156       2
      51      57      60     162       5      51      57      60     165       5
      51      57      60     168       5      54      51      48     159      13
      54      51     -48     159       6      57      51      48     159       6
      57      63      66     171       7      63      57      60     162       5
      63      57      60     165       5      63      57      60     168       5
      63      66      69     174       4      63      66      69     177       4
      63      45      42     156       2      63      45      48     159       9
      72      39      36     153      11      72      39      42     156       7
      72      78      81     189       5      72      78      81     192       5
      78      72      75     180       5      78      72      75     183       5
      78      72      75     186       5      78      81      84     195      14
      78      81      84     198      14      78      33      30     150       7
      78      33      36     153      11      87      84      81     189      14
      87      84      81     192      14      90      87      84     195      18
      90      87     -84     195      19      90      87      84     198      18
      90      87     -84     198      19      93      87      84     195      18
      93      87     -84     195      19      93      87      84     198      18
      93      87     -84     198      19      96      27      30     150       2
      96      99     102     207      14      96      99     102     210      14
      96     114     117     213       5      96     114     117     216       5
      96     114     117     219       5     105     102      99     201      14
     105     102      99     204      14     108     105     102     207      18
     108     105    -102     207      19     108     105     102     210      18
     108     105    -102     210      19     111     105     102     207      18
     111     105    -102     207      19     111     105     102     210      18
     111     105    -102     210      19     114      96      99     201       5
     114      96      99     204       5     114      21      18     147       7
     120      15      18     147       2     123       6       3     135       7
     126     123     120     222      13     126     123    -120     222       6
     129       0       3     135       4     132       0       3     135       4
     171      66      69     174       4     171      66      69     177       4
     189      81      84     195      20     189      81      84     198      20
     192      81      84     195      20     192      81      84     198      20
     201      99     102     207      20     201      99     102     210      20
     204      99     102     207      20     204      99     102     210      20
     132       0    -129      -3      21       0       6      -3    -135      21
      21      15     -18    -147      21      33      27     -30    -150      21
      33      39     -36    -153      21      39      45     -42    -156      21
      51      45     -48    -159      21      69      63     -66    -171      21
      66     174     -69    -177      21     123      15    -120    -222      21
%FLAG DIHEDRALS_WITHOUT_HYDROGEN                                                
%FORMAT(10I8)                                                                   
       0       3       6       9       1       0       3       6     123       1
       3       6       9      12       2       3       6       9      15       2
       3       6     123     120       3       3       6     123     126       3
       6       9      15      18       2       6       9     -15     120       2
       6     123    -120      15       6       9       6    -123     120       3
       9       6     123     126       3       9      15      18      21       8
       9      15    -120     123       9      12       9       6     123       2
      12       9      15      18       2      12       9      15     120       2
      15       9      -6     123       2      15      18      21      24       7
      15      18      21     114       1      15     120     123     126       6
      18      15     120     123       9      18      21      24      27      10
      18      21     114      96       2      18      21     114     117       2
      21      18      15     120       4      21      24      27      30      10
      21      24     -27      96      10      21     114     -96      27       2
      21     114      96      99       2      24      21    -114      96       2
      24      21     114     117       2      24      27      30      33       2
      24      27      96      99       2      24      27     -96     114       2
      27      24     -21     114      10      27      30      33      36       7
      27      30      33      78       1      27      96      99     102       5
      27      96     114     117       2      30      27      96      99       2
      30      27      96     114       2      30      33      36      39      11
      30      33      78      72       2      30      33      78      81       2
      33      30      27      96       8      33      36      39      42      11
      33      36     -39      72      11      33      78     -72      39       2
      33      78      72      75       2      33      78      81      84      12
      36      33     -78      72       2      36      33      78      81       2
      36      39      42      45       7      36      39      72      75       2
      36      39     -72      78       2      39      36     -33      78      11
      39      42      45      48       4      39      42      45      63       8
      39      72      78      81       2      42      39      72      75       2
      42      39      72      78       2      42      45      48      51       9
      42      45      63      57       2      42      45      63      66       2
      45      42      39      72       1      45      48      51      54       6
      45      48     -51      57       6      45      63     -57      51       2
      45      63      57      60       2      45      63      66      69       1
      48      45     -63      57       2      48      45      63      66       2
      48      51      57      60       3      48      51     -57      63       3
      51      48     -45      63       9      51      57      63      66       2
      54      51      57      60       3      54      51      57      63       3
      57      63      66      69       1      60      57      63      66       2
      72      78      81      84       5      75      72      78      81       2
      78      81      84      87      14      81      84      87      90      15
      81      84     -87      90      16      81      84     -87      90      17
      81      84      87      93      15      81      84     -87      93      16
      81      84     -87      93      17      96      99     102     105      14
      99      96     114     117       2      99     102     105     108      15
      99     102    -105     108      16      99     102    -105     108      17
      99     102     105     111      15      99     102    -105     111      16
      99     102    -105     111      17     102      99      96     114      12
     123       9      -6      -3      21      12       6      -9     -15      21
       9      18     -15    -120      21     114      18     -21     -24      21
      96      30     -27     -24      21      78      30     -33     -36      21
      72      42     -39     -36      21      63      42     -45     -48      21
      57      48     -51     -54      22      51      60     -57     -63      21
      57      45     -63     -66      21      75      39     -72     -78      21
      81      33     -78     -72      21      84      90     -87     -93      21
      99     114     -96     -27      21     102     108    -105    -111      21
     117      21    -114     -96      21       6     120    -123    -126      22
%FLAG EXCLUDED_ATOMS_LIST                                                       
%FORMAT(10I8)                                                                   
       2       3       4      42      44      45      46       3       4       5
       6      41      42      43      44      45      46       4       5       6
       7      41      42      43      44      45      46      47      48      49
      75       5       6       7       8      41      42      43      46      47
      48      49      50      75       6       7      41      42      47      48
      49       7       8       9      39      41      42      43      47      48
      49      50      75       8       9      10      33      39      40      41
      42      50      75       9      10      11      33      34      39      40
      41      50      72      73      74      10      11      12      33      34
      39      40      50      51      11      12      13      27      33      34
      35      39      40      51      68      69      12      13      14      25
      27      28      33      34      39      51      52      13      14      15
      25      26      27      28      29      33      51      52      64      65
      14      15      16      25      26      27      28      51      52      53
      15      16      17      22      25      26      27      28      52      53
      61      62      63      16      17      18      20      22      23      25
      26      27      52      53      54      17      18      19      20      21
      22      23      24      25      53      54      58      18      19      20
      21      22      23      53      54      19      20      21      22      23
      54      55      56      57      20      21      22      54      21      22
      23      24      54      55      56      57      58      22      23      55
      56      57      23      24      53      54      55      56      57      58
      59      60      24      58      59      60      58      59      60      26
      27      28      29      52      53      61      62      63      64      65
      27      28      61      62      63      28      29      30      51      52
      61      62      63      64      65      66      67      29      30      31
      32      64      65      66      67      30      31      32      64      65
      66      67      31      32      64      65      66      67      32      66
      67      66      67      34      35      36      39      40      51      68
      69      70      71      72      73      74      35      36      37      38
      39      40      68      69      70      71      36      37      38      39
      68      69      70      71      37      38      68      69      70      71
      38      70      71      70      71      40      50      68      69      72
      73      74      72      73      74      42      43      50      75      43
      46      75      75      45      46      46       0      48      49      49
       0       0       0       0       0       0      56      57      57       0
      59      60      60       0      62      63      63       0      65      66
      67      66      67      67       0      69      70      71      70      71
      71       0      73      74      74       0       0
%FLAG HBOND_ACOEF                                                               
%FORMAT(5E16.8)                                                                 

%FLAG HBOND_BCOEF                                                               
%FORMAT(5E16.8)                                                                 

%FLAG HBCUT                                                                     
%FORMAT(5E16.8)                                                                 

%FLAG AMBER_ATOM_TYPE                                                           
%FORMAT(20a4)                                                                   
c2  ce  cc  cd  c3  cd  ce  cc  nd  cd  ce  cc  na  cc  ce  cd  ns  c   o   cc  
c3  cd  cf  c2  cd  c3  cd  c3  c3  c   o   o   cd  c3  c3  c   o   o   cc  c3  
ns  c   o   ha  ha  ha  hc  hc  hc  ha  ha  hn  ha  hn  hc  hc  hc  ha  ha  ha  
hc  hc  hc  hc  hc  hc  hc  hc  hc  hc  hc  hc  hc  hc  hn  
%FLAG TREE_CHAIN_CLASSIFICATION                                                 
%FORMAT(20a4)                                                                   
BLA BLA BLA BLA BLA BLA BLA BLA BLA BLA BLA BLA BLA BLA BLA BLA BLA BLA BLA BLA 
BLA BLA BLA BLA BLA BLA BLA BLA BLA BLA BLA BLA BLA BLA BLA BLA BLA BLA BLA BLA 
BLA BLA BLA BLA BLA BLA BLA BLA BLA BLA BLA BLA BLA BLA BLA BLA BLA BLA BLA BLA 
BLA BLA BLA BLA BLA BLA BLA BLA BLA BLA BLA BLA BLA BLA BLA 
%FLAG JOIN_ARRAY                                                                
%FORMAT(10I8)                                                                   
       0       0       0       0       0       0       0       0       0       0
       0       0       0       0       0       0       0       0       0       0
       0       0       0       0       0       0       0       0       0       0
       0       0       0       0       0       0       0       0       0       0
       0       0       0       0       0       0       0       0       0       0
       0       0       0       0       0       0       0       0       0       0
       0       0       0       0       0       0       0       0       0       0
       0       0       0       0       0
%FLAG IROTAT                                                                    
%FORMAT(10I8)                                                                   
       0       0       0       0       0       0       0       0       0       0
       0       0       0       0       0       0       0       0       0       0
       0       0       0       0       0       0       0       0       0       0
       0       0       0       0       0       0       0       0       0       0
       0       0       0       0       0       0       0       0       0       0
       0       0       0       0       0       0       0       0       0       0
       0       0       0       0       0       0       0       0       0       0
       0       0       0       0       0
%FLAG RADIUS_SET                                                                
%FORMAT(1a80)                                                                   
modified Bondi radii (mbondi)                                                   
%FLAG RADII                                                                     
%FORMAT(5E16.8)                                                                 
  1.70000000E+00  1.70000000E+00  1.70000000E+00  1.70000000E+00  1.70000000E+00
  1.70000000E+00  1.70000000E+00  1.70000000E+00  1.55000000E+00  1.70000000E+00
  1.70000000E+00  1.70000000E+00  1.55000000E+00  1.70000000E+00  1.70000000E+00
  1.70000000E+00  1.55000000E+00  1.70000000E+00  1.50000000E+00  1.70000000E+00
  1.70000000E+00  1.70000000E+00  1.70000000E+00  1.70000000E+00  1.70000000E+00
  1.70000000E+00  1.70000000E+00  1.70000000E+00  1.70000000E+00  1.70000000E+00
  1.50000000E+00  1.50000000E+00  1.70000000E+00  1.70000000E+00  1.70000000E+00
  1.70000000E+00  1.50000000E+00  1.50000000E+00  1.70000000E+00  1.70000000E+00
  1.55000000E+00  1.70000000E+00  1.50000000E+00  1.30000000E+00  1.30000000E+00
  1.30000000E+00  1.30000000E+00  1.30000000E+00  1.30000000E+00  1.30000000E+00
  1.30000000E+00  1.30000000E+00  1.30000000E+00  1.30000000E+00  1.30000000E+00
  1.30000000E+00  1.30000000E+00  1.30000000E+00  1.30000000E+00  1.30000000E+00
  1.30000000E+00  1.30000000E+00  1.30000000E+00  1.30000000E+00  1.30000000E+00
  1.30000000E+00  1.30000000E+00  1.30000000E+00  1.30000000E+00  1.30000000E+00
  1.30000000E+00  1.30000000E+00  1.30000000E+00  1.30000000E+00  1.30000000E+00
%FLAG SCREEN                                                                    
%FORMAT(5E16.8)                                                                 
  7.20000000E-01  7.20000000E-01  7.20000000E-01  7.20000000E-01  7.20000000E-01
  7.20000000E-01  7.20000000E-01  7.20000000E-01  7.90000000E-01  7.20000000E-01
  7.20000000E-01  7.20000000E-01  7.90000000E-01  7.20000000E-01  7.20000000E-01
  7.20000000E-01  7.90000000E-01  7.20000000E-01  8.50000000E-01  7.20000000E-01
  7.20000000E-01  7.20000000E-01  7.20000000E-01  7.20000000E-01  7.20000000E-01
  7.20000000E-01  7.20000000E-01  7.20000000E-01  7.20000000E-01  7.20000000E-01
  8.50000000E-01  8.50000000E-01  7.20000000E-01  7.20000000E-01  7.20000000E-01
  7.20000000E-01  8.50000000E-01  8.50000000E-01  7.20000000E-01  7.20000000E-01
  7.90000000E-01  7.20000000E-01  8.50000000E-01  8.50000000E-01  8.50000000E-01
  8.50000000E-01  8.50000000E-01  8.50000000E-01  8.50000000E-01  8.50000000E-01
  8.50000000E-01  8.50000000E-01  8.50000000E-01  8.50000000E-01  8.50000000E-01
  8.50000000E-01  8.50000000E-01  8.50000000E-01  8.50000000E-01  8.50000000E-01
  8.50000000E-01  8.50000000E-01  8.50000000E-01  8.50000000E-01  8.50000000E-01
  8.50000000E-01  8.50000000E-01  8.50000000E-01  8.50000000E-01  8.50000000E-01
  8.50000000E-01  8.50000000E-01  8.50000000E-01  8.50000000E-01  8.50000000E-01
%FLAG IPOL                                                                      
%FORMAT(1I8)                                                                    
       0
