MOL
    65
  -1.7120000  -4.6780000  -0.2840000  -2.2840000  -4.4780000  -1.6810000
  -1.2770000  -3.8330000  -2.6420000  -1.7040000  -4.0530000  -4.0950000
  -1.1580000  -2.3400000  -2.3880000  -1.9200000  -1.4950000  -2.8380000
  -0.0690000  -2.0760000  -1.6150000   0.2010000  -0.6800000  -1.3440000
   0.9980000  -0.0710000  -2.5000000   2.3290000  -0.7940000  -2.6970000
   3.2040000   0.0080000  -3.4820000   3.0280000  -1.1080000  -1.4120000
   2.4500000  -1.0110000  -0.1990000   3.1940000  -1.3730000   0.9900000
   2.6380000  -1.4260000   2.2060000   1.1830000  -1.1410000   2.4890000
   1.0960000   0.1800000   3.2500000   0.3250000  -1.2450000   1.1910000
  -1.1730000  -0.8990000   1.3970000  -1.5810000   0.5850000   1.3870000
  -3.1090000   0.7530000   1.3500000  -3.6690000   0.0920000   2.4850000
  -3.5020000   2.2400000   1.3300000  -5.0160000   2.4220000   1.1310000
  -5.7170000   1.8260000   2.2300000  -5.4370000   3.8740000   0.9350000
  -5.1090000   4.7490000   2.1390000  -5.3090000   4.1960000   3.2610000
  -4.6880000   5.9060000   1.8690000   1.0050000  -0.5370000  -0.0170000
  -0.7900000  -5.2680000  -0.3240000  -1.4910000  -3.7230000   0.1990000
  -2.4320000  -5.2130000   0.3430000  -2.5830000  -5.4610000  -2.0650000
  -3.1940000  -3.8690000  -1.6150000  -0.2870000  -4.2930000  -2.5230000
  -1.7080000  -5.1200000  -4.3420000  -2.7080000  -3.6570000  -4.2840000
  -1.0160000  -3.5490000  -4.7840000  -0.7450000  -0.1390000  -1.2470000
   0.4290000  -0.1310000  -3.4370000   1.1660000   0.9990000  -2.3170000
   2.1690000  -1.7320000  -3.2420000   2.6890000   0.3440000  -4.2350000
   4.0520000  -1.4580000  -1.5100000   4.2500000  -1.6120000   0.8810000
   3.2600000  -1.6920000   3.0580000   0.8320000  -1.9300000   3.1690000
   1.2870000   1.0400000   2.5990000   1.8270000   0.2160000   4.0670000
   0.1160000   0.2960000   3.7210000   0.3270000  -2.3210000   0.9520000
  -1.7410000  -1.4010000   0.6040000  -1.5100000  -1.3620000   2.3340000
  -1.1980000   1.0850000   2.2790000  -1.1520000   1.1020000   0.5250000
  -3.5020000   0.2610000   0.4530000  -4.5600000   0.4920000   2.6150000
  -2.9640000   2.7540000   0.5240000  -3.2020000   2.6880000   2.2840000
  -5.3200000   1.8640000   0.2380000  -5.7110000   2.5370000   2.9280000
  -6.5230000   3.9280000   0.7930000  -4.9620000   4.2830000   0.0350000
   1.0700000   0.5370000   0.2110000
