%VERSION  VERSION_STAMP = V0001.000  DATE = 07/11/26  14:06:12                  
%FLAG TITLE                                                                     
%FORMAT(20a4)                                                                   
MOL                                                                             
%FLAG POINTERS                                                                  
%FORMAT(10I8)                                                                   
      65       9      35      31      81      43     162      94       0       0
     383       1      31      43      94      15      30      36      11       0
       0       0       0       0       0       0       0       0      65       0
       0
%FLAG ATOM_NAME                                                                 
%FORMAT(20a4)                                                                   
C1  C2  C3  C4  C5  O1  O2  C6  C7  C8  O3  C9  C10 C11 C12 C13 C14 C15 C16 C17 
C18 O4  C19 C20 O5  C21 C22 O6  O7  C23 H1  H2  H3  H4  H5  H6  H7  H8  H9  H10 
H11 H12 H13 H14 H15 H16 H17 H18 H19 H20 H21 H22 H23 H24 H25 H26 H27 H28 H29 H30 
H31 H32 H33 H34 H35 
%FLAG CHARGE                                                                    
%FORMAT(5E16.8)                                                                 
 -1.82405223E+00 -1.41040602E+00 -2.01720861E+00 -1.66005153E+00  1.15365381E+01
 -9.96759810E+00 -7.85198907E+00  2.88094563E+00 -2.59485552E+00  3.32192529E+00
 -1.09661801E+01 -3.06499086E+00 -9.51204060E-01 -2.66045580E+00 -2.59121106E+00
 -5.55780150E-01 -1.80582993E+00 -8.14536810E-01 -1.35573912E+00 -1.59262902E+00
  2.84450103E+00 -1.16768498E+01 -2.81352312E+00  3.19072473E+00 -1.21141850E+01
 -4.27130712E+00  1.65567818E+01 -1.54306436E+01 -1.54306436E+01 -3.37112550E-01
  7.41647610E-01  7.41647610E-01  7.41647610E-01  9.51204060E-01  9.51204060E-01
  1.48876191E+00  8.08468784E-01  8.08468784E-01  8.08468784E-01  1.52520651E+00
  1.23364971E+00  1.23364971E+00  6.86980710E-01  7.27069770E+00  2.44178820E+00
  2.16845370E+00  2.13200910E+00  9.05648310E-01  8.87426010E-01  8.87426010E-01
  8.87426010E-01  9.05648310E-01  8.23647960E-01  8.23647960E-01  8.50981410E-01
  8.50981410E-01  3.40757010E-01  7.96314510E+00  1.34298351E+00  1.34298351E+00
  4.31868510E-01  8.32759110E+00  6.96091860E-01  6.96091860E-01  1.48876191E+00
%FLAG ATOMIC_NUMBER                                                             
%FORMAT(10I8)                                                                   
       6       6       6       6       6       8       8       6       6       6
       8       6       6       6       6       6       6       6       6       6
       6       8       6       6       8       6       6       8       8       6
       1       1       1       1       1       1       1       1       1       1
       1       1       1       1       1       1       1       1       1       1
       1       1       1       1       1       1       1       1       1       1
       1       1       1       1       1
%FLAG MASS                                                                      
%FORMAT(5E16.8)                                                                 
  1.20100000E+01  1.20100000E+01  1.20100000E+01  1.20100000E+01  1.20100000E+01
  1.60000000E+01  1.60000000E+01  1.20100000E+01  1.20100000E+01  1.20100000E+01
  1.60000000E+01  1.20100000E+01  1.20100000E+01  1.20100000E+01  1.20100000E+01
  1.20100000E+01  1.20100000E+01  1.20100000E+01  1.20100000E+01  1.20100000E+01
  1.20100000E+01  1.60000000E+01  1.20100000E+01  1.20100000E+01  1.60000000E+01
  1.20100000E+01  1.20100000E+01  1.60000000E+01  1.60000000E+01  1.20100000E+01
  1.00800000E+00  1.00800000E+00  1.00800000E+00  1.00800000E+00  1.00800000E+00
  1.00800000E+00  1.00800000E+00  1.00800000E+00  1.00800000E+00  1.00800000E+00
  1.00800000E+00  1.00800000E+00  1.00800000E+00  1.00800000E+00  1.00800000E+00
  1.00800000E+00  1.00800000E+00  1.00800000E+00  1.00800000E+00  1.00800000E+00
  1.00800000E+00  1.00800000E+00  1.00800000E+00  1.00800000E+00  1.00800000E+00
  1.00800000E+00  1.00800000E+00  1.00800000E+00  1.00800000E+00  1.00800000E+00
  1.00800000E+00  1.00800000E+00  1.00800000E+00  1.00800000E+00  1.00800000E+00
%FLAG ATOM_TYPE_INDEX                                                           
%FORMAT(10I8)                                                                   
       1       1       1       1       2       3       4       1       1       1
       5       2       2       2       2       1       1       1       1       1
       1       5       1       1       5       1       2       3       3       1
       6       6       6       6       6       6       6       6       6       7
       6       6       7       8       9       9       9       6       6       6
       6       6       6       6       6       6       7       8       6       6
       7       8       6       6       6
%FLAG NUMBER_EXCLUDED_ATOMS                                                     
%FORMAT(10I8)                                                                   
      10      14      14       9      12       3      11      16      13      11
       7      12      13      10      12      15       9      16      13      14
      14       8      14      12       8       9       5       3       2      10
       4       3       2       2       1       3       2       1       1       3
       2       1       2       1       1       1       1       4       2       1
       1       3       3       2       2       1       3       1       2       1
       3       1       1       1       1
%FLAG NONBONDED_PARM_INDEX                                                      
%FORMAT(10I8)                                                                   
       1       2       4       7      11      16      22      29      37       2
       3       5       8      12      17      23      30      38       4       5
       6       9      13      18      24      31      39       7       8       9
      10      14      19      25      32      40      11      12      13      14
      15      20      26      33      41      16      17      18      19      20
      21      27      34      42      22      23      24      25      26      27
      28      35      43      29      30      31      32      33      34      35
      36      44      37      38      39      40      41      42      43      44
      45
%FLAG RESIDUE_LABEL                                                             
%FORMAT(20a4)                                                                   
MOL 
%FLAG RESIDUE_POINTER                                                           
%FORMAT(10I8)                                                                   
       1
%FLAG BOND_FORCE_CONSTANT                                                       
%FORMAT(5E16.8)                                                                 
  2.32500000E+02  3.75900000E+02  2.43200000E+02  6.52600000E+02  3.72900000E+02
  2.84800000E+02  3.75900000E+02  2.93400000E+02  2.55600000E+02  5.63500000E+02
  4.60500000E+02  3.92200000E+02  3.06100000E+02  2.50100000E+02  3.91400000E+02
%FLAG BOND_EQUIL_VALUE                                                          
%FORMAT(5E16.8)                                                                 
  1.53800000E+00  1.09700000E+00  1.52400000E+00  1.21800000E+00  1.35800000E+00
  1.43200000E+00  1.09700000E+00  1.42300000E+00  1.51000000E+00  9.73000000E-01
  1.34600000E+00  1.08800000E+00  1.45700000E+00  1.51600000E+00  1.08800000E+00
%FLAG ANGLE_FORCE_CONSTANT                                                      
%FORMAT(5E16.8)                                                                 
  6.49000000E+01  4.68000000E+01  6.53000000E+01  8.46000000E+01  8.64000000E+01
  4.74000000E+01  6.69000000E+01  1.14800000E+02  8.53000000E+01  6.24000000E+01
  6.55000000E+01  4.69000000E+01  8.46000000E+01  6.55000000E+01  4.90000000E+01
  6.61000000E+01  4.64000000E+01  8.55000000E+01  6.25000000E+01  4.76000000E+01
  6.75000000E+01  6.60000000E+01  5.00000000E+01  4.77000000E+01  4.72000000E+01
  6.54000000E+01  5.01000000E+01  4.75000000E+01  1.18800000E+02  3.90000000E+01
%FLAG ANGLE_EQUIL_VALUE                                                         
%FORMAT(5E16.8)                                                                 
  1.94621748E+00  1.91637234E+00  1.93801443E+00  2.15024656E+00  1.93242938E+00
  1.89839544E+00  2.02423373E+00  2.15111922E+00  1.88443280E+00  1.91602327E+00
  1.93592004E+00  1.91218355E+00  1.92317913E+00  1.94709015E+00  1.87204096E+00
  2.14937390E+00  2.01899774E+00  1.92597166E+00  1.92440086E+00  1.91916487E+00
  2.15129376E+00  2.13855285E+00  2.10224999E+00  2.03592745E+00  1.93016045E+00
  2.04413050E+00  2.09334880E+00  1.92614619E+00  2.27329233E+00  1.87762601E+00
%FLAG DIHEDRAL_FORCE_CONSTANT                                                   
%FORMAT(5E16.8)                                                                 
  1.10000000E-01  2.90000000E-01  1.30000000E-01  1.00000000E-01  8.00000000E-02
  7.40000000E-01  2.70000000E-01  5.50000000E-01  0.00000000E+00  1.58000000E+00
  3.18000000E+00  7.30000000E-01  1.55555556E-01  8.00000000E-01  3.83000000E-01
  3.83333333E-01  8.30000000E-01  4.00000000E-02  1.40000000E+00  2.70000000E+00
  2.50000000E-01  0.00000000E+00  2.10000000E-01  8.20000000E-02  0.00000000E+00
  6.65000000E+00  5.10000000E-01  1.80000000E-01  1.66666667E-01  5.00000000E-01
  1.00000000E+00  1.47000000E+00  3.60000000E-01  1.20000000E-01  1.13000000E-01
  1.10000000E+00
%FLAG DIHEDRAL_PERIODICITY                                                      
%FORMAT(5E16.8)                                                                 
  1.00000000E+00  2.00000000E+00  3.00000000E+00  3.00000000E+00  3.00000000E+00
  1.00000000E+00  2.00000000E+00  3.00000000E+00  2.00000000E+00  1.00000000E+00
  2.00000000E+00  3.00000000E+00  3.00000000E+00  1.00000000E+00  3.00000000E+00
  3.00000000E+00  1.00000000E+00  3.00000000E+00  1.00000000E+00  2.00000000E+00
  1.00000000E+00  3.00000000E+00  3.00000000E+00  3.00000000E+00  2.00000000E+00
  2.00000000E+00  1.00000000E+00  3.00000000E+00  3.00000000E+00  2.00000000E+00
  2.00000000E+00  1.00000000E+00  3.00000000E+00  3.00000000E+00  3.00000000E+00
  2.00000000E+00
%FLAG DIHEDRAL_PHASE                                                            
%FORMAT(5E16.8)                                                                 
  0.00000000E+00  3.14159400E+00  0.00000000E+00  0.00000000E+00  0.00000000E+00
  0.00000000E+00  3.14159400E+00  3.14159400E+00  3.14159400E+00  3.14159400E+00
  3.14159400E+00  0.00000000E+00  0.00000000E+00  3.14159400E+00  0.00000000E+00
  0.00000000E+00  0.00000000E+00  3.14159400E+00  3.14159400E+00  3.14159400E+00
  0.00000000E+00  0.00000000E+00  0.00000000E+00  0.00000000E+00  0.00000000E+00
  3.14159400E+00  0.00000000E+00  0.00000000E+00  0.00000000E+00  3.14159400E+00
  3.14159400E+00  0.00000000E+00  3.14159400E+00  0.00000000E+00  0.00000000E+00
  3.14159400E+00
%FLAG SCEE_SCALE_FACTOR                                                         
%FORMAT(5E16.8)                                                                 
  1.20000000E+00  1.20000000E+00  1.20000000E+00  1.20000000E+00  1.20000000E+00
  1.20000000E+00  1.20000000E+00  1.20000000E+00  1.20000000E+00  1.20000000E+00
  1.20000000E+00  1.20000000E+00  1.20000000E+00  1.20000000E+00  1.20000000E+00
  1.20000000E+00  1.20000000E+00  1.20000000E+00  1.20000000E+00  1.20000000E+00
  1.20000000E+00  1.20000000E+00  1.20000000E+00  1.20000000E+00  1.20000000E+00
  1.20000000E+00  1.20000000E+00  1.20000000E+00  1.20000000E+00  1.20000000E+00
  1.20000000E+00  1.20000000E+00  1.20000000E+00  1.20000000E+00  1.20000000E+00
  0.00000000E+00
%FLAG SCNB_SCALE_FACTOR                                                         
%FORMAT(5E16.8)                                                                 
  2.00000000E+00  2.00000000E+00  2.00000000E+00  2.00000000E+00  2.00000000E+00
  2.00000000E+00  2.00000000E+00  2.00000000E+00  2.00000000E+00  2.00000000E+00
  2.00000000E+00  2.00000000E+00  2.00000000E+00  2.00000000E+00  2.00000000E+00
  2.00000000E+00  2.00000000E+00  2.00000000E+00  2.00000000E+00  2.00000000E+00
  2.00000000E+00  2.00000000E+00  2.00000000E+00  2.00000000E+00  2.00000000E+00
  2.00000000E+00  2.00000000E+00  2.00000000E+00  2.00000000E+00  2.00000000E+00
  2.00000000E+00  2.00000000E+00  2.00000000E+00  2.00000000E+00  2.00000000E+00
  0.00000000E+00
%FLAG SOLTY                                                                     
%FORMAT(5E16.8)                                                                 
  0.00000000E+00  0.00000000E+00  0.00000000E+00  0.00000000E+00  0.00000000E+00
  0.00000000E+00  0.00000000E+00  0.00000000E+00  0.00000000E+00  0.00000000E+00
  0.00000000E+00
%FLAG LENNARD_JONES_ACOEF                                                       
%FORMAT(5E16.8)                                                                 
  1.02073671E+06  8.43969952E+05  6.96551276E+05  6.30925504E+05  5.17507491E+05
  3.76435470E+05  5.42502534E+05  4.46121722E+05  3.27367585E+05  2.83662575E+05
  7.18991463E+05  5.92438683E+05  4.37717034E+05  3.78207390E+05  5.03152404E+05
  1.00235148E+05  8.12662403E+04  5.68021765E+04  5.02224902E+04  6.80216136E+04
  7.94617769E+03  6.97998263E+04  5.63013422E+04  3.86646725E+04  3.44374471E+04
  4.69084694E+04  5.22955465E+03  3.39005767E+03  3.03553352E+02  2.25372434E+02
  1.15813907E+02  1.16469347E+02  1.74176419E+02  8.80612241E+00  4.36660257E+00
  1.10360882E-05  9.27554496E+04  7.52549148E+04  5.27277400E+04  4.65732396E+04
  6.30298721E+04  7.41026906E+03  4.88692384E+03  8.53132435E+00  6.90855956E+03
%FLAG LENNARD_JONES_BCOEF                                                       
%FORMAT(5E16.8)                                                                 
  6.63431737E+02  5.90251928E+02  5.24668528E+02  5.62969425E+02  4.98871431E+02
  4.69350655E+02  4.38146883E+02  3.88758656E+02  3.67361018E+02  2.87011518E+02
  5.36620538E+02  4.76608379E+02  4.51916854E+02  3.52573684E+02  4.32634597E+02
  1.37787728E+02  1.21392023E+02  1.11953944E+02  8.83545880E+01  1.09393126E+02
  2.57122925E+01  1.14981426E+02  1.01040256E+02  9.23664132E+01  7.31636661E+01
  9.08431526E+01  2.08590256E+01  1.67944276E+01  5.22789272E+00  4.40751799E+00
  3.48534600E+00  2.93355636E+00  3.81654050E+00  5.90150328E-01  4.15568027E-01
  4.55498033E-04  1.24325688E+02  1.09570372E+02  1.01173582E+02  7.98066064E+01
  9.87712192E+01  2.32899892E+01  1.89134207E+01  5.44840215E-01  2.10929191E+01
%FLAG BONDS_INC_HYDROGEN                                                        
%FORMAT(10I8)                                                                   
       0      90       2       0      93       2       0      96       2       3
      99       2       3     102       2       6     105       2       9     108
       2       9     111       2       9     114       2      21     117       7
      24     120       2      24     123       2      27     126       7      30
     129      10      33     132      12      39     135      15      42     138
      12      45     141       2      48     144       2      48     147       2
      48     150       2      51     153       2      54     156       2      54
     159       2      57     162       2      57     165       2      60     168
       7      63     171      10      66     174       2      66     177       2
      69     180       7      72     183      10      75     186       2      75
     189       2      87     192       2
%FLAG BONDS_WITHOUT_HYDROGEN                                                    
%FORMAT(10I8)                                                                   
       0       3       1       3       6       1       6       9       1       6
      12       3      12      15       4      12      18       5      18      21
       6      21      24       1      21      87       1      24      27       1
      27      30       8      27      33       9      33      36      11      36
      39      13      36      87      14      39      42      11      42      45
       9      45      48       1      45      51       1      51      54       1
      51      87       1      54      57       1      57      60       1      60
      63       8      60      66       1      66      69       1      69      72
       8      69      75       1      75      78       3      78      81       4
      78      84       4
%FLAG ANGLES_INC_HYDROGEN                                                       
%FORMAT(10I8)                                                                   
       0       3      99       2       0       3     102       2       3       0
      90       2       3       0      93       2       3       0      96       2
       3       6     105       2       6       3      99       2       6       3
     102       2       6       9     108       2       6       9     111       2
       6       9     114       2       9       6     105       2      12       6
     105       6      18      21     117      10      21      24     120       2
      21      24     123       2      21      87     192       2      24      21
     117      12      24      27     126      12      27      24     120       2
      27      24     123       2      27      30     129      15      27      33
     132      17      30      27     126      19      33      27     126      20
      36      33     132      23      36      39     135      24      36      87
     192      25      39      42     138      23      42      39     135      27
      42      45     141      28      45      42     138      17      45      48
     144       2      45      48     147       2      45      48     150       2
      45      51     153       2      48      45     141       2      51      45
     141       2      51      54     156       2      51      54     159       2
      51      87     192       2      54      51     153       2      54      57
     162       2      54      57     165       2      57      54     156       2
      57      54     159       2      57      60     168      12      60      57
     162       2      60      57     165       2      60      63     171      15
      60      66     174       2      60      66     177       2      63      60
     168      19      66      60     168      12      66      69     180      12
      69      66     174       2      69      66     177       2      69      72
     183      15      69      75     186       2      69      75     189       2
      72      69     180      19      75      69     180      12      78      75
     186       6      78      75     189       6      87      51     153       2
      87      21     117      12      90       0      93      30      90       0
      96      30      93       0      96      30      99       3     102      30
     108       9     111      30     108       9     114      30     111       9
     114      30     120      24     123      30     144      48     147      30
     144      48     150      30     147      48     150      30     156      54
     159      30     162      57     165      30     174      66     177      30
     186      75     189      30
%FLAG ANGLES_WITHOUT_HYDROGEN                                                   
%FORMAT(10I8)                                                                   
       0       3       6       1       3       6       9       1       3       6
      12       3       6      12      15       4       6      12      18       5
       9       6      12       3      12      18      21       7      15      12
      18       8      18      21      24       9      18      21      87       9
      21      24      27       1      21      87      51       1      21      87
      36      11      24      21      87       1      24      27      30      13
      24      27      33      14      27      33      36      16      30      27
      33      18      33      36      39      21      33      36      87      22
      36      39      42      21      36      87      51      11      39      36
      87      26      39      42      45      16      42      45      48      14
      42      45      51      14      45      51      54       1      45      51
      87       1      48      45      51       1      51      54      57       1
      54      51      87       1      54      57      60       1      57      60
      63      13      57      60      66       1      60      66      69       1
      63      60      66      13      66      69      72      13      66      69
      75       1      69      75      78       3      72      69      75      13
      75      78      81       4      75      78      84       4      81      78
      84      29
%FLAG DIHEDRALS_INC_HYDROGEN                                                    
%FORMAT(10I8)                                                                   
       0       3       6     105       5       3       6       9     108       5
       3       6       9     111       5       3       6       9     114       5
      90       0       3       6       5      93       0       3       6       5
      96       0       3       6       5       9       6       3      99       5
       9       6       3     102       5      12       6       3      99      13
      12       6       3     102      13      12       6       9     108      13
      12       6       9     111      13      12       6       9     114      13
      12      18      21     117      16      15      12       6     105      17
      15      12      -6     105      18      18      12       6     105       9
      18      21      24     120      21      18      21     -24     120      22
      18      21      24     123      21      18      21     -24     123      22
      18      21      87     192      21      18      21     -87     192      22
      21      24      27     126      13      21      87      51     153       5
      24      21      87     192       5      24      27      30     129      22
      24      27      33     132      25      27      24      21     117      13
      30      27      24     120      27      30      27     -24     120      28
      30      27      24     123      27      30      27     -24     123      28
      30      27      33     132      25      33      27      24     120      13
      33      27      24     123      13      33      27      30     129      29
      33      36      39     135      31      33      36      87     192      32
      33      36     -87     192      33      36      33      27     126      25
      36      39      42     138      26      36      87      51     153      13
      36      87      21     117      13      39      36      33     132      26
      39      36      87     192      32      39      36     -87     192      33
      39      42      45     141      25      42      45      48     144      13
      42      45      48     147      13      42      45      48     150      13
      42      45      51     153      13      45      42      39     135      26
      45      51      54     156       5      45      51      54     159       5
      45      51      87     192       5      48      45      42     138      25
      48      45      51     153       5      51      45      42     138      25
      51      45      48     144       5      51      45      48     147       5
      51      45      48     150       5      51      54      57     162       5
      51      54      57     165       5      51      87      21     117      13
      54      51      45     141       5      54      51      87     192       5
      54      57      60     168      13      57      54      51     153       5
      57      60      63     171      22      57      60      66     174       5
      57      60      66     177       5      60      57      54     156       5
      60      57      54     159       5      60      66      69     180      13
      63      60      57     162      27      63      60     -57     162      28
      63      60      57     165      27      63      60     -57     165      28
      63      60      66     174      27      63      60     -66     174      28
      63      60      66     177      27      63      60     -66     177      28
      66      60      57     162       5      66      60      57     165       5
      66      60      63     171      22      66      69      72     183      22
      66      69      75     186       5      66      69      75     189       5
      69      66      60     168      13      72      69      66     174      27
      72      69     -66     174      28      72      69      66     177      27
      72      69     -66     177      28      72      69      75     186      27
      72      69     -75     186      28      72      69      75     189      27
      72      69     -75     189      28      75      69      66     174       5
      75      69      66     177       5      75      69      72     183      22
      78      75      69     180      13      81      78      75     186      17
      81      78     -75     186      18      81      78      75     189      17
      81      78     -75     189      18      84      78      75     186      17
      84      78     -75     186      18      84      78      75     189      17
      84      78     -75     189      18      87      51      45     141       5
      87      51      54     156       5      87      51      54     159       5
      87      21      24     120       5      87      21      24     123       5
      87      36      33     132      26      87      36      39     135      31
      90       0       3      99      34      90       0       3     102      34
      93       0       3      99      34      93       0       3     102      34
      96       0       3      99      34      96       0       3     102      34
      99       3       6     105      34     102       3       6     105      34
     105       6       9     108      34     105       6       9     111      34
     105       6       9     114      34     117      21      24     120      13
     117      21      24     123      13     117      21      87     192      13
     120      24      27     126      13     123      24      27     126      13
     126      27      30     129      35     126      27      33     132      25
     135      39      42     138      26     138      42      45     141      25
     141      45      48     144      34     141      45      48     147      34
     141      45      48     150      34     141      45      51     153      34
     153      51      54     156      34     153      51      54     159      34
     153      51      87     192      34     156      54      57     162      34
     156      54      57     165      34     159      54      57     162      34
     159      54      57     165      34     162      57      60     168      13
     165      57      60     168      13     168      60      63     171      35
     168      60      66     174      13     168      60      66     177      13
     174      66      69     180      13     177      66      69     180      13
     180      69      72     183      35     180      69      75     186      13
     180      69      75     189      13      27      36     -33    -132      36
      42      36     -39    -135      36      45      39     -42    -138      36
%FLAG DIHEDRALS_WITHOUT_HYDROGEN                                                
%FORMAT(10I8)                                                                   
       0       3       6       9       1       0       3      -6       9       2
       0       3      -6       9       3       0       3       6      12       4
       3       6      12      15       6       3       6     -12      15       7
       3       6     -12      15       8       3       6      12      18       9
       6      12      18      21      10       6      12     -18      21      11
       6      12     -18      21      12       9       6      12      15       6
       9       6     -12      15       7       9       6     -12      15       8
       9       6      12      18       9      12      18      21      24      14
      12      18     -21      24      15      12      18      21      87      14
      12      18     -21      87      15      15      12      18      21      19
      15      12     -18      21      20      18      21      24      27      13
      18      21      87      51      13      18      21      87      36      13
      21      24      27      30      23      21      24      27      33      13
      21      87      51      45       1      21      87     -51      45       2
      21      87     -51      45       3      21      87      51      54       1
      21      87     -51      54       2      21      87     -51      54       3
      21      87     -36      33      24      21      87      36      39      24
      24      21      87      51       1      24      21     -87      51       2
      24      21     -87      51       3      24      21      87      36      13
      24      27     -33      36      25      27      24      21      87       1
      27      24     -21      87       2      27      24     -21      87       3
      27      33      36      39      26      27      33     -36      87      26
      30      27      33      36      25      33      36      39      42      30
      33      36      87      51      24      36      39      42      45      26
      36      87     -51      45      13      36      87      51      54      13
      39      36      87      51      24      39      42      45      48      25
      39      42     -45      51      25      42      39      36      87      30
      42      45      51      54      13      42      45     -51      87      13
      45      51      54      57       1      45      51     -54      57       2
      45      51     -54      57       3      48      45      51      54       1
      48      45     -51      54       2      48      45     -51      54       3
      48      45      51      87       1      48      45     -51      87       2
      48      45     -51      87       3      51      54      57      60       1
      51      54     -57      60       2      51      54     -57      60       3
      54      57      60      63      23      54      57      60      66       1
      54      57     -60      66       2      54      57     -60      66       3
      57      54      51      87       1      57      54     -51      87       2
      57      54     -51      87       3      57      60      66      69       1
      57      60     -66      69       2      57      60     -66      69       3
      60      66      69      72      23      60      66      69      75       1
      60      66     -69      75       2      60      66     -69      75       3
      63      60      66      69      23      66      69      75      78       4
      69      75      78      81       6      69      75     -78      81       7
      69      75     -78      81       8      69      75      78      84       6
      69      75     -78      84       7      69      75     -78      84       8
      72      69      75      78      23       6      15     -12     -18      36
      33      87     -36     -39      36      75      81     -78     -84      36
%FLAG EXCLUDED_ATOMS_LIST                                                       
%FORMAT(10I8)                                                                   
       2       3       4       5      31      32      33      34      35      36
       3       4       5       6       7      31      32      33      34      35
      36      37      38      39       4       5       6       7       8      31
      32      33      34      35      36      37      38      39       5       6
       7      34      35      36      37      38      39       6       7       8
       9      30      34      35      36      37      38      39      40       7
       8      36       8       9      10      13      18      30      36      40
      41      42      65       9      10      11      12      13      14      16
      18      19      30      40      41      42      43      52      65      10
      11      12      13      18      30      40      41      42      43      44
      45      65      11      12      13      14      30      40      41      42
      43      44      45      12      13      41      42      43      44      45
      13      14      15      18      30      41      42      43      44      45
      46      65      14      15      16      18      19      30      40      43
      45      46      47      52      65      15      16      17      18      30
      45      46      47      48      65      16      17      18      19      30
      46      47      48      49      50      51      52      17      18      19
      20      30      46      47      48      49      50      51      52      53
      54      65      18      19      30      47      48      49      50      51
      52      19      20      21      30      40      47      48      49      50
      51      52      53      54      55      56      65      20      21      22
      23      30      48      52      53      54      55      56      57      65
      21      22      23      24      30      52      53      54      55      56
      57      58      59      60      22      23      24      25      26      53
      54      55      56      57      58      59      60      61      23      24
      55      56      57      58      59      60      24      25      26      27
      55      56      57      58      59      60      61      62      63      64
      25      26      27      28      29      57      59      60      61      62
      63      64      26      27      59      60      61      62      63      64
      27      28      29      59      60      61      62      63      64      28
      29      61      63      64      29      63      64      63      64      40
      41      42      45      46      48      52      53      54      65      32
      33      34      35      33      34      35      34      35      35      36
      36      37      38      39      38      39      39       0      41      42
      65      42      43      43      44      45       0       0      47      48
      49      50      51      52      50      51      51       0      53      54
      65      54      55      56      55      56      56      57      57      58
      59      60       0      60      61      61      62      63      64       0
      64       0       0
%FLAG HBOND_ACOEF                                                               
%FORMAT(5E16.8)                                                                 

%FLAG HBOND_BCOEF                                                               
%FORMAT(5E16.8)                                                                 

%FLAG HBCUT                                                                     
%FORMAT(5E16.8)                                                                 

%FLAG AMBER_ATOM_TYPE                                                           
%FORMAT(20a4)                                                                   
c3  c3  c3  c3  c   o   os  c3  c3  c3  oh  c2  ce  ce  c2  c3  c3  c3  c3  c3  
c3  oh  c3  c3  oh  c3  c   o   o   c3  hc  hc  hc  hc  hc  hc  hc  hc  hc  h1  
hc  hc  h1  ho  ha  ha  ha  hc  hc  hc  hc  hc  hc  hc  hc  hc  h1  ho  hc  hc  
h1  ho  hc  hc  hc  
%FLAG TREE_CHAIN_CLASSIFICATION                                                 
%FORMAT(20a4)                                                                   
BLA BLA BLA BLA BLA BLA BLA BLA BLA BLA BLA BLA BLA BLA BLA BLA BLA BLA BLA BLA 
BLA BLA BLA BLA BLA BLA BLA BLA BLA BLA BLA BLA BLA BLA BLA BLA BLA BLA BLA BLA 
BLA BLA BLA BLA BLA BLA BLA BLA BLA BLA BLA BLA BLA BLA BLA BLA BLA BLA BLA BLA 
BLA BLA BLA BLA BLA 
%FLAG JOIN_ARRAY                                                                
%FORMAT(10I8)                                                                   
       0       0       0       0       0       0       0       0       0       0
       0       0       0       0       0       0       0       0       0       0
       0       0       0       0       0       0       0       0       0       0
       0       0       0       0       0       0       0       0       0       0
       0       0       0       0       0       0       0       0       0       0
       0       0       0       0       0       0       0       0       0       0
       0       0       0       0       0
%FLAG IROTAT                                                                    
%FORMAT(10I8)                                                                   
       0       0       0       0       0       0       0       0       0       0
       0       0       0       0       0       0       0       0       0       0
       0       0       0       0       0       0       0       0       0       0
       0       0       0       0       0       0       0       0       0       0
       0       0       0       0       0       0       0       0       0       0
       0       0       0       0       0       0       0       0       0       0
       0       0       0       0       0
%FLAG RADIUS_SET                                                                
%FORMAT(1a80)                                                                   
modified Bondi radii (mbondi)                                                   
%FLAG RADII                                                                     
%FORMAT(5E16.8)                                                                 
  1.70000000E+00  1.70000000E+00  1.70000000E+00  1.70000000E+00  1.70000000E+00
  1.50000000E+00  1.50000000E+00  1.70000000E+00  1.70000000E+00  1.70000000E+00
  1.50000000E+00  1.70000000E+00  1.70000000E+00  1.70000000E+00  1.70000000E+00
  1.70000000E+00  1.70000000E+00  1.70000000E+00  1.70000000E+00  1.70000000E+00
  1.70000000E+00  1.50000000E+00  1.70000000E+00  1.70000000E+00  1.50000000E+00
  1.70000000E+00  1.70000000E+00  1.50000000E+00  1.50000000E+00  1.70000000E+00
  1.30000000E+00  1.30000000E+00  1.30000000E+00  1.30000000E+00  1.30000000E+00
  1.30000000E+00  1.30000000E+00  1.30000000E+00  1.30000000E+00  1.30000000E+00
  1.30000000E+00  1.30000000E+00  1.30000000E+00  8.00000000E-01  1.30000000E+00
  1.30000000E+00  1.30000000E+00  1.30000000E+00  1.30000000E+00  1.30000000E+00
  1.30000000E+00  1.30000000E+00  1.30000000E+00  1.30000000E+00  1.30000000E+00
  1.30000000E+00  1.30000000E+00  8.00000000E-01  1.30000000E+00  1.30000000E+00
  1.30000000E+00  8.00000000E-01  1.30000000E+00  1.30000000E+00  1.30000000E+00
%FLAG SCREEN                                                                    
%FORMAT(5E16.8)                                                                 
  7.20000000E-01  7.20000000E-01  7.20000000E-01  7.20000000E-01  7.20000000E-01
  8.50000000E-01  8.50000000E-01  7.20000000E-01  7.20000000E-01  7.20000000E-01
  8.50000000E-01  7.20000000E-01  7.20000000E-01  7.20000000E-01  7.20000000E-01
  7.20000000E-01  7.20000000E-01  7.20000000E-01  7.20000000E-01  7.20000000E-01
  7.20000000E-01  8.50000000E-01  7.20000000E-01  7.20000000E-01  8.50000000E-01
  7.20000000E-01  7.20000000E-01  8.50000000E-01  8.50000000E-01  7.20000000E-01
  8.50000000E-01  8.50000000E-01  8.50000000E-01  8.50000000E-01  8.50000000E-01
  8.50000000E-01  8.50000000E-01  8.50000000E-01  8.50000000E-01  8.50000000E-01
  8.50000000E-01  8.50000000E-01  8.50000000E-01  8.50000000E-01  8.50000000E-01
  8.50000000E-01  8.50000000E-01  8.50000000E-01  8.50000000E-01  8.50000000E-01
  8.50000000E-01  8.50000000E-01  8.50000000E-01  8.50000000E-01  8.50000000E-01
  8.50000000E-01  8.50000000E-01  8.50000000E-01  8.50000000E-01  8.50000000E-01
  8.50000000E-01  8.50000000E-01  8.50000000E-01  8.50000000E-01  8.50000000E-01
%FLAG IPOL                                                                      
%FORMAT(1I8)                                                                    
       0
