MOL
    70
   0.4470000  -4.1650000   1.1150000   0.8040000  -3.3250000   2.1020000
   1.4390000  -3.8460000   3.3630000   0.5950000  -1.8210000   1.9820000
  -0.3810000  -1.2580000   3.0360000  -1.7030000  -1.7840000   2.8480000
  -2.5990000  -0.7820000   2.5740000  -2.7240000  -0.2000000   1.3100000
  -1.9820000  -0.5040000   0.2070000  -2.4100000   0.3060000  -0.7940000
  -3.4250000   1.1250000  -0.3570000  -3.6440000   0.8000000   1.0070000
  -4.5200000   1.2460000   2.0180000  -4.4400000   0.6630000   3.2940000
  -5.3320000   1.0820000   4.3650000  -5.2310000   0.5140000   5.5710000
  -4.2400000  -0.5330000   5.8720000  -4.1720000  -1.0220000   6.9940000
  -3.4050000  -0.9170000   4.8360000  -3.4950000  -0.3340000   3.5500000
   1.8800000  -1.2030000   2.1600000   2.3830000  -0.3620000   1.0890000
   1.4270000   0.8100000   0.8260000   3.6860000   0.2170000   1.6740000
   2.6760000  -1.2360000  -0.1760000   3.5590000  -2.3120000   0.1890000
   3.2880000  -0.4990000  -1.3790000   2.3190000   0.3750000  -1.9530000
   2.7100000   1.1100000  -3.0570000   3.9650000   1.1350000  -3.6840000
   5.0770000   0.4240000  -3.3300000   6.0670000   0.7450000  -4.1990000
   5.6200000   1.6600000  -5.1210000   4.2600000   1.9220000  -4.7990000
   3.2570000   2.7470000  -5.3430000   1.9880000   2.7530000  -4.7500000
   0.9210000   3.5890000  -5.2780000  -0.2840000   3.5730000  -4.7010000
  -0.5870000   2.7320000  -3.5320000  -1.7080000   2.7310000  -3.0360000
   0.4490000   1.9540000  -3.0390000   1.7390000   1.9480000  -3.6350000
  -0.0160000  -3.8050000   0.2000000   0.5960000  -5.2380000   1.1960000
   0.7980000  -3.6560000   4.2290000   2.4100000  -3.3700000   3.5350000
   1.6110000  -4.9270000   3.3170000   0.1890000  -1.6030000   0.9910000
  -0.0580000  -1.5260000   4.0490000  -0.3580000  -0.1600000   3.0150000
  -1.9000000   0.1910000  -1.7420000  -3.9340000   1.8670000  -0.9560000
  -5.2450000   2.0240000   1.7980000  -6.0710000   1.8510000   4.1700000
  -5.8780000   0.7990000   6.3920000   0.5320000   0.4870000   0.2890000
   1.9020000   1.6000000   0.2370000   1.0900000   1.2580000   1.7680000
   3.4840000   0.7400000   2.6170000   4.1680000   0.9260000   0.9950000
   4.4020000  -0.5750000   1.9170000   1.7460000  -1.7060000  -0.5150000
   3.2040000  -2.6680000   1.0270000   3.5920000  -1.2480000  -2.1210000
   4.1780000   0.0540000  -1.0620000   7.0130000   0.2470000  -4.0340000
   6.2000000   2.0860000  -5.9260000   3.4760000   3.3630000  -6.2110000
   1.1170000   4.2180000  -6.1400000  -1.1010000   4.1810000  -5.0680000
