%VERSION  VERSION_STAMP = V0001.000  DATE = 07/11/26  14:08:33                  
%FLAG TITLE                                                                     
%FORMAT(20a4)                                                                   
MOL                                                                             
%FLAG POINTERS                                                                  
%FORMAT(10I8)                                                                   
      70      10      28      47      58      70     116     126       0       0
     378       1      47      70     126      22      41      35      14       0
       0       0       0       0       0       0       0       0      70       0
       0
%FLAG ATOM_NAME                                                                 
%FORMAT(20a4)                                                                   
C1  C2  C3  C4  C5  O1  C6  C7  O2  C8  C9  C10 C11 C12 C13 C14 C15 O3  O4  C16 
O5  C17 C18 C19 C20 O6  C21 O7  C22 C23 O8  C24 C25 C26 C27 C28 C29 C30 C31 O9  
O10 C32 H1  H2  H3  H4  H5  H6  H7  H8  H9  H10 H11 H12 H13 H14 H15 H16 H17 H18 
H19 H20 H21 H22 H23 H24 H25 H26 H27 H28 
%FLAG CHARGE                                                                    
%FORMAT(5E16.8)                                                                 
 -3.64446000E+00 -2.72241162E+00 -1.21907187E+00  2.50192179E+00  2.28507642E+00
 -5.57420157E+00  1.45960623E+00  1.53249543E+00 -3.53877066E+00  2.02267530E-01
 -3.48410376E+00 -2.09192004E+00 -7.28892000E-01 -2.93014584E+00 -1.49422860E-01
 -4.66855326E+00  1.30981892E+01 -1.02500437E+01 -5.76189126E+00  2.62583343E+00
 -7.82830008E+00  2.34703224E+00 -1.92427488E+00 -1.92427488E+00  2.13383133E+00
 -1.10208470E+01  2.33974332E+00 -5.50131237E+00  2.31605433E+00  5.66713530E-01
 -3.70277136E+00  2.00445300E-02 -3.19254696E+00 -1.65458484E+00 -1.16622720E+00
 -2.51103294E+00 -1.67645160E-01 -4.57744176E+00  1.31893007E+01 -1.07238236E+01
 -5.52500136E+00  2.35249893E+00  2.17756485E+00  2.17756485E+00  8.69203710E-01
  8.69203710E-01  8.69203710E-01  1.39765041E+00  1.41587271E+00  1.41587271E+00
  4.17290670E+00  3.07956870E+00  2.67867810E+00  2.67867810E+00  3.07956870E+00
  9.29938636E-01  9.29938636E-01  9.29938636E-01  9.29938636E-01  9.29938636E-01
  9.29938636E-01  1.19720511E+00  7.74447750E+00  1.24276086E+00  1.24276086E+00
  3.60801540E+00  3.11601330E+00  2.73334500E+00  2.75156730E+00  3.13423560E+00
%FLAG ATOMIC_NUMBER                                                             
%FORMAT(10I8)                                                                   
       6       6       6       6       6       8       6       6       8       6
       6       6       6       6       6       6       6       8       8       6
       8       6       6       6       6       8       6       8       6       6
       8       6       6       6       6       6       6       6       6       8
       8       6       1       1       1       1       1       1       1       1
       1       1       1       1       1       1       1       1       1       1
       1       1       1       1       1       1       1       1       1       1
%FLAG MASS                                                                      
%FORMAT(5E16.8)                                                                 
  1.20100000E+01  1.20100000E+01  1.20100000E+01  1.20100000E+01  1.20100000E+01
  1.60000000E+01  1.20100000E+01  1.20100000E+01  1.60000000E+01  1.20100000E+01
  1.20100000E+01  1.20100000E+01  1.20100000E+01  1.20100000E+01  1.20100000E+01
  1.20100000E+01  1.20100000E+01  1.60000000E+01  1.60000000E+01  1.20100000E+01
  1.60000000E+01  1.20100000E+01  1.20100000E+01  1.20100000E+01  1.20100000E+01
  1.60000000E+01  1.20100000E+01  1.60000000E+01  1.20100000E+01  1.20100000E+01
  1.60000000E+01  1.20100000E+01  1.20100000E+01  1.20100000E+01  1.20100000E+01
  1.20100000E+01  1.20100000E+01  1.20100000E+01  1.20100000E+01  1.60000000E+01
  1.60000000E+01  1.20100000E+01  1.00800000E+00  1.00800000E+00  1.00800000E+00
  1.00800000E+00  1.00800000E+00  1.00800000E+00  1.00800000E+00  1.00800000E+00
  1.00800000E+00  1.00800000E+00  1.00800000E+00  1.00800000E+00  1.00800000E+00
  1.00800000E+00  1.00800000E+00  1.00800000E+00  1.00800000E+00  1.00800000E+00
  1.00800000E+00  1.00800000E+00  1.00800000E+00  1.00800000E+00  1.00800000E+00
  1.00800000E+00  1.00800000E+00  1.00800000E+00  1.00800000E+00  1.00800000E+00
%FLAG ATOM_TYPE_INDEX                                                           
%FORMAT(10I8)                                                                   
       1       1       2       2       2       3       1       1       3       1
       1       1       1       1       1       1       1       4       3       1
       3       2       2       2       2       5       2       3       1       1
       3       1       1       1       1       1       1       1       1       4
       3       1       6       6       7       7       7       8       8       8
       9       6       6       6       6       7       7       7       7       7
       7       8      10       8       8       9       6       6       6       6
%FLAG NUMBER_EXCLUDED_ATOMS                                                     
%FORMAT(10I8)                                                                   
      11      14       9      16       9      11      13      11       7       5
       6       7       8       8       8       6       5       3       2       2
      16      17      11      10      14       6       8      10      13      11
       7       5       6       7       8       8       8       6       5       3
       2       2       1       1       2       1       1       2       1       1
       1       1       1       1       1       2       1       1       2       1
       1       3       1       1       1       1       1       1       1       1
%FLAG NONBONDED_PARM_INDEX                                                      
%FORMAT(10I8)                                                                   
       1       2       4       7      11      16      22      29      37      46
       2       3       5       8      12      17      23      30      38      47
       4       5       6       9      13      18      24      31      39      48
       7       8       9      10      14      19      25      32      40      49
      11      12      13      14      15      20      26      33      41      50
      16      17      18      19      20      21      27      34      42      51
      22      23      24      25      26      27      28      35      43      52
      29      30      31      32      33      34      35      36      44      53
      37      38      39      40      41      42      43      44      45      54
      46      47      48      49      50      51      52      53      54      55
%FLAG RESIDUE_LABEL                                                             
%FORMAT(20a4)                                                                   
MOL 
%FLAG RESIDUE_POINTER                                                           
%FORMAT(10I8)                                                                   
       1
%FLAG BOND_FORCE_CONSTANT                                                       
%FORMAT(5E16.8)                                                                 
  4.81800000E+02  3.92200000E+02  2.55600000E+02  3.75900000E+02  2.32500000E+02
  2.84800000E+02  3.75900000E+02  3.57500000E+02  3.78600000E+02  3.67900000E+02
  4.16100000E+02  4.03900000E+02  3.08200000E+02  4.00100000E+02  3.95700000E+02
  3.08200000E+02  4.00100000E+02  2.95400000E+02  6.52600000E+02  3.72900000E+02
  2.93400000E+02  5.63500000E+02
%FLAG BOND_EQUIL_VALUE                                                          
%FORMAT(5E16.8)                                                                 
  1.33400000E+00  1.08800000E+00  1.51000000E+00  1.09700000E+00  1.53800000E+00
  1.43200000E+00  1.09700000E+00  1.37000000E+00  1.39800000E+00  1.36200000E+00
  1.37300000E+00  1.08200000E+00  1.45600000E+00  1.08400000E+00  1.08600000E+00
  1.45600000E+00  1.08400000E+00  1.46800000E+00  1.21800000E+00  1.35800000E+00
  1.42300000E+00  9.73000000E-01
%FLAG ANGLE_FORCE_CONSTANT                                                      
%FORMAT(5E16.8)                                                                 
  6.61000000E+01  5.04000000E+01  4.75000000E+01  6.55000000E+01  8.60000000E+01
  4.76000000E+01  6.49000000E+01  8.53000000E+01  4.69000000E+01  6.63000000E+01
  6.61000000E+01  6.24000000E+01  8.73000000E+01  6.88000000E+01  6.93000000E+01
  6.71000000E+01  8.80000000E+01  6.36000000E+01  6.98000000E+01  4.90000000E+01
  4.78000000E+01  4.63000000E+01  4.87000000E+01  6.71000000E+01  6.98000000E+01
  4.63000000E+01  6.72000000E+01  4.90000000E+01  8.67000000E+01  8.71000000E+01
  4.74000000E+01  6.70000000E+01  1.14800000E+02  4.68000000E+01  8.46000000E+01
  6.49000000E+01  4.90000000E+01  6.25000000E+01  3.77000000E+01  3.90000000E+01
  3.88000000E+01
%FLAG ANGLE_EQUIL_VALUE                                                         
%FORMAT(5E16.8)                                                                 
  2.15775148E+00  2.10190092E+00  1.92614619E+00  1.94709015E+00  1.89473025E+00
  1.91916487E+00  2.01847415E+00  1.88443280E+00  1.91218355E+00  1.96314718E+00
  2.05879127E+00  1.91602327E+00  2.08043336E+00  2.09474507E+00  1.97361916E+00
  2.10818411E+00  2.09963199E+00  2.00538417E+00  1.98112408E+00  2.12511381E+00
  2.24239998E+00  2.16490733E+00  2.09230160E+00  2.10818411E+00  1.98112408E+00
  2.16490733E+00  2.11795796E+00  2.12511381E+00  2.16298747E+00  1.99316686E+00
  2.03575291E+00  2.11446730E+00  2.15111922E+00  1.91637234E+00  1.92317913E+00
  1.94621748E+00  1.87204096E+00  1.92440086E+00  2.04029077E+00  1.87762601E+00
  1.89298492E+00
%FLAG DIHEDRAL_FORCE_CONSTANT                                                   
%FORMAT(5E16.8)                                                                 
  1.47000000E+00  3.60000000E-01  0.00000000E+00  1.55555556E-01  3.83333333E-01
  6.65000000E+00  3.10000000E-01  0.00000000E+00  1.60000000E-01  2.40000000E-01
  1.61000000E+00  1.70000000E-01  0.00000000E+00  0.00000000E+00  2.50000000E-01
  3.62500000E+00  9.00000000E-01  6.50000000E-01  1.05000000E+00  5.05000000E-01
  7.00000000E-01  4.00000000E+00  2.87500000E+00  2.70000000E+00  1.27500000E+00
  2.00000000E-02  1.01000000E+00  3.37000000E-01  8.00000000E-02  2.10000000E-01
  1.10000000E-01  2.90000000E-01  1.30000000E-01  1.13000000E-01  1.10000000E+00
%FLAG DIHEDRAL_PERIODICITY                                                      
%FORMAT(5E16.8)                                                                 
  1.00000000E+00  3.00000000E+00  2.00000000E+00  3.00000000E+00  3.00000000E+00
  2.00000000E+00  2.00000000E+00  1.00000000E+00  2.00000000E+00  3.00000000E+00
  2.00000000E+00  1.00000000E+00  2.00000000E+00  3.00000000E+00  1.00000000E+00
  2.00000000E+00  2.00000000E+00  2.00000000E+00  2.00000000E+00  2.00000000E+00
  2.00000000E+00  2.00000000E+00  2.00000000E+00  2.00000000E+00  2.00000000E+00
  1.00000000E+00  3.00000000E+00  3.00000000E+00  3.00000000E+00  3.00000000E+00
  1.00000000E+00  2.00000000E+00  3.00000000E+00  3.00000000E+00  2.00000000E+00
%FLAG DIHEDRAL_PHASE                                                            
%FORMAT(5E16.8)                                                                 
  0.00000000E+00  3.14159400E+00  0.00000000E+00  0.00000000E+00  0.00000000E+00
  3.14159400E+00  0.00000000E+00  0.00000000E+00  0.00000000E+00  0.00000000E+00
  3.14159400E+00  3.14159400E+00  3.14159400E+00  0.00000000E+00  0.00000000E+00
  3.14159400E+00  3.14159400E+00  3.14159400E+00  3.14159400E+00  3.14159400E+00
  3.14159400E+00  3.14159400E+00  3.14159400E+00  3.14159400E+00  3.14159400E+00
  3.14159400E+00  0.00000000E+00  0.00000000E+00  0.00000000E+00  0.00000000E+00
  0.00000000E+00  3.14159400E+00  0.00000000E+00  0.00000000E+00  3.14159400E+00
%FLAG SCEE_SCALE_FACTOR                                                         
%FORMAT(5E16.8)                                                                 
  1.20000000E+00  1.20000000E+00  1.20000000E+00  1.20000000E+00  1.20000000E+00
  1.20000000E+00  1.20000000E+00  1.20000000E+00  1.20000000E+00  1.20000000E+00
  1.20000000E+00  1.20000000E+00  1.20000000E+00  1.20000000E+00  1.20000000E+00
  1.20000000E+00  1.20000000E+00  1.20000000E+00  1.20000000E+00  1.20000000E+00
  1.20000000E+00  1.20000000E+00  1.20000000E+00  1.20000000E+00  1.20000000E+00
  1.20000000E+00  1.20000000E+00  1.20000000E+00  1.20000000E+00  1.20000000E+00
  1.20000000E+00  1.20000000E+00  1.20000000E+00  1.20000000E+00  0.00000000E+00
%FLAG SCNB_SCALE_FACTOR                                                         
%FORMAT(5E16.8)                                                                 
  2.00000000E+00  2.00000000E+00  2.00000000E+00  2.00000000E+00  2.00000000E+00
  2.00000000E+00  2.00000000E+00  2.00000000E+00  2.00000000E+00  2.00000000E+00
  2.00000000E+00  2.00000000E+00  2.00000000E+00  2.00000000E+00  2.00000000E+00
  2.00000000E+00  2.00000000E+00  2.00000000E+00  2.00000000E+00  2.00000000E+00
  2.00000000E+00  2.00000000E+00  2.00000000E+00  2.00000000E+00  2.00000000E+00
  2.00000000E+00  2.00000000E+00  2.00000000E+00  2.00000000E+00  2.00000000E+00
  2.00000000E+00  2.00000000E+00  2.00000000E+00  2.00000000E+00  0.00000000E+00
%FLAG SOLTY                                                                     
%FORMAT(5E16.8)                                                                 
  0.00000000E+00  0.00000000E+00  0.00000000E+00  0.00000000E+00  0.00000000E+00
  0.00000000E+00  0.00000000E+00  0.00000000E+00  0.00000000E+00  0.00000000E+00
  0.00000000E+00  0.00000000E+00  0.00000000E+00  0.00000000E+00
%FLAG LENNARD_JONES_ACOEF                                                       
%FORMAT(5E16.8)                                                                 
  6.96551276E+05  8.43969952E+05  1.02073671E+06  4.46121722E+05  5.42502534E+05
  2.83662575E+05  5.17507491E+05  6.30925504E+05  3.27367585E+05  3.76435470E+05
  5.92438683E+05  7.18991463E+05  3.78207390E+05  4.37717034E+05  5.03152404E+05
  7.52549148E+04  9.27554496E+04  4.65732396E+04  5.27277400E+04  6.30298721E+04
  6.90855956E+03  8.12662403E+04  1.00235148E+05  5.02224902E+04  5.68021765E+04
  6.80216136E+04  7.41026906E+03  7.94617769E+03  5.63013422E+04  6.97998263E+04
  3.44374471E+04  3.86646725E+04  4.69084694E+04  4.88692384E+03  5.22955465E+03
  3.39005767E+03  6.27751680E+04  7.75673747E+04  3.86549715E+04  4.36069364E+04
  5.24591488E+04  5.62610481E+03  6.02863188E+03  3.94664935E+03  4.56536476E+03
  2.25372434E+02  3.03553352E+02  1.16469347E+02  1.15813907E+02  1.74176419E+02
  8.53132435E+00  8.80612241E+00  4.36660257E+00  6.05535196E+00  1.10360882E-05
%FLAG LENNARD_JONES_BCOEF                                                       
%FORMAT(5E16.8)                                                                 
  5.24668528E+02  5.90251928E+02  6.63431737E+02  3.88758656E+02  4.38146883E+02
  2.87011518E+02  4.98871431E+02  5.62969425E+02  3.67361018E+02  4.69350655E+02
  4.76608379E+02  5.36620538E+02  3.52573684E+02  4.51916854E+02  4.32634597E+02
  1.09570372E+02  1.24325688E+02  7.98066064E+01  1.01173582E+02  9.87712192E+01
  2.10929191E+01  1.21392023E+02  1.37787728E+02  8.83545880E+01  1.11953944E+02
  1.09393126E+02  2.32899892E+01  2.57122925E+01  1.01040256E+02  1.14981426E+02
  7.31636661E+01  9.23664132E+01  9.08431526E+01  1.89134207E+01  2.08590256E+01
  1.67944276E+01  1.00073628E+02  1.13692208E+02  7.27065100E+01  9.20079458E+01
  9.01089277E+01  1.90347353E+01  2.10068861E+01  1.69967767E+01  1.71467049E+01
  4.40751799E+00  5.22789272E+00  2.93355636E+00  3.48534600E+00  3.81654050E+00
  5.44840215E-01  5.90150328E-01  4.15568027E-01  4.59018960E-01  4.55498033E-04
%FLAG BONDS_INC_HYDROGEN                                                        
%FORMAT(10I8)                                                                   
       0     126       2       0     129       2       6     132       4       6
     135       4       6     138       4       9     141       7      12     144
       7      12     147       7      27     150      12      30     153      14
      36     156      15      42     159      17      45     162      14      66
     165       4      66     168       4      66     171       4      69     174
       4      69     177       4      69     180       4      72     183       7
      75     186      22      78     189       7      78     192       7      93
     195      12      96     198      14     102     201      15     108     204
      17     111     207      14
%FLAG BONDS_WITHOUT_HYDROGEN                                                    
%FORMAT(10I8)                                                                   
       0       3       1       3       6       3       3       9       3       9
      12       5       9      60       6      12      15       6      15      18
       8      18      21       9      18      57       9      21      24       8
      21      33       9      24      27      10      27      30      11      30
      33      13      33      36       9      36      39       9      39      42
      16      39      57       9      42      45      11      45      48      18
      48      51      19      48      54      20      54      57       8      60
      63       6      63      66       5      63      69       5      63      72
       5      72      75      21      72      78       5      78      81       6
      81      84       8      84      87       9      84     123       9      87
      90       8      87      99       9      90      93      10      93      96
      11      96      99      13      99     102       9     102     105       9
     105     108      16     105     123       9     108     111      11     111
     114      18     114     117      19     114     120      20     120     123
       8
%FLAG ANGLES_INC_HYDROGEN                                                       
%FORMAT(10I8)                                                                   
       3       0     126       2       3       0     129       2       3       6
     132       3       3       6     135       3       3       6     138       3
       3       9     141       6       9      12     144       9       9      12
     147       9      12       9     141       9      15      12     144      12
      15      12     147      12      24      27     150      18      27      30
     153      20      30      27     150      21      33      30     153      22
      33      36     156      23      39      36     156      23      39      42
     159      26      42      45     162      20      45      42     159      28
      48      45     162      31      60       9     141      12      63      66
     165      34      63      66     168      34      63      66     171      34
      63      69     174      34      63      69     177      34      63      69
     180      34      63      72     183       9      72      75     186      37
      72      78     189       9      72      78     192       9      75      72
     183      38      78      72     183       9      81      78     189      12
      81      78     192      12      90      93     195      18      93      96
     198      20      96      93     195      21      99      96     198      22
      99     102     201      23     105     102     201      23     105     108
     204      26     108     111     207      20     111     108     204      28
     114     111     207      31     126       0     129      39     132       6
     135      40     132       6     138      40     135       6     138      40
     144      12     147      41     165      66     168      40     165      66
     171      40     168      66     171      40     174      69     177      40
     174      69     180      40     177      69     180      40     189      78
     192      41
%FLAG ANGLES_WITHOUT_HYDROGEN                                                   
%FORMAT(10I8)                                                                   
       0       3       6       1       0       3       9       1       3       9
      12       4       3       9      60       5       6       3       9       7
       9      12      15       8       9      60      63      10      12       9
      60       8      12      15      18      11      15      18      21      13
      15      18      57      13      18      21      24      13      18      21
      33      14      18      57      54      13      18      57      39      14
      21      18      57      14      21      24      27      15      21      33
      30      16      21      33      36      14      24      21      33      13
      24      27      30      17      27      30      33      19      30      33
      36      16      33      36      39      14      36      39      42      24
      36      39      57      14      39      42      45      25      39      57
      54      13      42      39      57      24      42      45      48      27
      45      48      51      29      45      48      54      30      48      54
      57      32      51      48      54      33      60      63      66       8
      60      63      69       8      60      63      72       8      63      72
      75      35      63      72      78      36      66      63      69      36
      66      63      72      36      69      63      72      36      72      78
      81       8      75      72      78      35      78      81      84      11
      81      84      87      13      81      84     123      13      84      87
      90      13      84      87      99      14      84     123     120      13
      84     123     105      14      87      84     123      14      87      90
      93      15      87      99      96      16      87      99     102      14
      90      87      99      13      90      93      96      17      93      96
      99      19      96      99     102      16      99     102     105      14
     102     105     108      24     102     105     123      14     105     108
     111      25     105     123     120      13     108     105     123      24
     108     111     114      27     111     114     117      29     111     114
     120      30     114     120     123      32     117     114     120      33
%FLAG DIHEDRALS_INC_HYDROGEN                                                    
%FORMAT(10I8)                                                                   
       0       3       6     132       1       0       3      -6     132       2
       0       3       6     135       1       0       3      -6     135       2
       0       3       6     138       1       0       3      -6     138       2
       0       3       9     141       3       3       9      12     144       4
       3       9      12     147       4     126       0       3       6       6
     129       0       3       6       6       6       3       9     141       3
     126       0       3       9       6     129       0       3       9       6
       9       3       6     132       7       9       3       6     135       7
       9       3       6     138       7      15      12       9     141      15
      15      12      -9     141      14      18      15      12     144       5
      18      15      12     147       5      21      24      27     150      19
      21      33      30     153      21      21      33      36     156      16
      24      27      30     153      22      30      33      36     156      16
      33      30      27     150      22      36      33      30     153      21
      36      39      42     159      21      39      42      45     162      22
      42      39      36     156      16      48      45      42     159      22
      51      48      45     162      23      54      48      45     162      23
      57      39      36     156      16      57      39      42     159      21
      60       9      12     144      15      60       9     -12     144      14
      60       9      12     147      15      60       9     -12     147      14
      60      63      66     165      15      60      63     -66     165      14
      60      63      66     168      15      60      63     -66     168      14
      60      63      66     171      15      60      63     -66     171      14
      60      63      69     174      15      60      63     -69     174      14
      60      63      69     177      15      60      63     -69     177      14
      60      63      69     180      15      60      63     -69     180      14
      60      63      72     183      15      60      63     -72     183      14
      63      60       9     141      28      63      72      75     186      14
      63      72      78     189       4      63      72      78     192       4
      66      63      69     174      29      66      63      69     177      29
      66      63      69     180      29      66      63      72     183       4
      69      63      66     165      29      69      63      66     168      29
      69      63      66     171      29      69      63      72     183       4
      72      63      66     165      29      72      63      66     168      29
      72      63      66     171      29      72      63      69     174      29
      72      63      69     177      29      72      63      69     180      29
      75      72      78     189      15      75      72     -78     189      14
      75      72      78     192      15      75      72     -78     192      14
      78      72      75     186      14      81      78      72     183      15
      81      78     -72     183      14      84      81      78     189       5
      84      81      78     192       5      87      90      93     195      19
      87      99      96     198      21      87      99     102     201      16
      90      93      96     198      22      96      99     102     201      16
      99      96      93     195      22     102      99      96     198      21
     102     105     108     204      21     105     108     111     207      22
     108     105     102     201      16     114     111     108     204      22
     117     114     111     207      23     120     114     111     207      23
     123     105     102     201      16     123     105     108     204      21
     141       9      12     144       4     141       9      12     147       4
     150      27      30     153      22     159      42      45     162      22
     183      72      75     186      34     183      72      78     189       4
     183      72      78     192       4     195      93      96     198      22
     204     108     111     207      22     129       0    -126      -3      35
      30     150     -27     -24      35      33      27     -30    -153      35
      33      39     -36    -156      35      39      45     -42    -159      35
      48      42     -45    -162      35      96     195     -93     -90      35
      99      93     -96    -198      35      99     105    -102    -201      35
     105     111    -108    -204      35     114     108    -111    -207      35
%FLAG DIHEDRALS_WITHOUT_HYDROGEN                                                
%FORMAT(10I8)                                                                   
       0       3       9      12       3       0       3       9      60       3
       3       9      12      15       4       3       9      60      63       5
       6       3       9      12       3       6       3       9      60       3
       9      12      15      18       5       9      60      63      66       8
       9      60     -63      66       9       9      60     -63      66      10
       9      60      63      69       8       9      60     -63      69       9
       9      60     -63      69      10       9      60      63      72       8
       9      60     -63      72       9       9      60     -63      72      10
      12       9      60      63       8      12       9     -60      63       9
      12       9     -60      63      10      12      15      18      21      11
      12      15      18      57      11      15      12       9      60      12
      15      12      -9      60      13      15      12      -9      60      14
      15      18      21      24      16      15      18      21      33      16
      15      18      57      54      16      15      18      57      39      16
      18      21      24      27      17      18      21      33      30      16
      18      21      33      36      16      18      57      54      48      18
      18      57     -39      36      16      18      57      39      42      16
      21      18      57      54      16      21      18      57      39      16
      21      24     -27      30      19      21      33     -30      27      20
      21      33     -36      39      16      24      21      18      57      16
      24      21     -33      30      16      24      21      33      36      16
      24      27     -30      33      22      27      24     -21      33      17
      27      30      33      36      20      30      33      36      39      16
      33      36      39      42      16      33      36      39      57      16
      33      21     -18      57      16      36      39      42      45      20
      36      39      57      54      16      39      42      45      48      22
      39      57     -54      48      18      42      39      57      54      16
      42      45      48      51      23      42      45     -48      54      23
      45      42      39      57      20      45      48     -54      57      24
      51      48      54      57      25      60      63      72      75      26
      60      63     -72      75       3      60      63     -72      75      27
      60      63      72      78       4      63      72      78      81       4
      66      63      72      75      30      66      63      72      78      31
      66      63     -72      78      32      66      63     -72      78      33
      69      63      72      75      30      69      63      72      78      31
      69      63     -72      78      32      69      63     -72      78      33
      72      78      81      84       5      75      72      78      81      26
      75      72     -78      81       3      75      72     -78      81      27
      78      81      84      87      11      78      81      84     123      11
      81      84      87      90      16      81      84      87      99      16
      81      84     123     120      16      81      84     123     105      16
      84      87      90      93      17      84      87      99      96      16
      84      87      99     102      16      84     123     120     114      18
      84     123    -105     102      16      84     123     105     108      16
      87      84     123     120      16      87      84     123     105      16
      87      90     -93      96      19      87      99     -96      93      20
      87      99    -102     105      16      90      87      84     123      16
      90      87     -99      96      16      90      87      99     102      16
      90      93     -96      99      22      93      90     -87      99      17
      93      96      99     102      20      96      99     102     105      16
      99     102     105     108      16      99     102     105     123      16
      99      87     -84     123      16     102     105     108     111      20
     102     105     123     120      16     105     108     111     114      22
     105     123    -120     114      18     108     105     123     120      16
     108     111     114     117      23     108     111    -114     120      23
     111     108     105     123      20     111     114    -120     123      24
     117     114     120     123      25       0       6      -3      -9      35
      21      57     -18     -15      35      18      33     -21     -24      35
      21      36     -33     -30      35      36      57     -39     -42      35
      45      51     -48     -54      35      18      39     -57     -54      35
      87     123     -84     -81      35      84      99     -87     -90      35
      87     102     -99     -96      35     102     123    -105    -108      35
     111     117    -114    -120      35      84     105    -123    -120      35
%FLAG EXCLUDED_ATOMS_LIST                                                       
%FORMAT(10I8)                                                                   
       2       3       4       5      21      43      44      45      46      47
      48       3       4       5       6      21      22      43      44      45
      46      47      48      49      50       4       5      21      43      44
      45      46      47      48       5       6       7      21      22      23
      24      25      43      44      45      46      47      48      49      50
       6       7       8      20      21      22      48      49      50       7
       8       9      12      14      19      20      21      48      49      50
       8       9      10      11      12      13      14      15      17      19
      20      49      50       9      10      11      12      13      14      19
      20      51      52      53      10      11      12      13      20      51
      52      11      12      13      51      52      12      13      14      51
      52      53      13      14      15      20      51      52      53      14
      15      16      19      20      52      53      54      15      16      17
      19      20      53      54      55      16      17      18      19      20
      53      54      55      17      18      19      20      54      55      18
      19      20      54      55      19      20      55      20      55      53
      54      22      23      24      25      26      27      48      49      50
      56      57      58      59      60      61      62      23      24      25
      26      27      28      48      56      57      58      59      60      61
      62      63      64      65      24      25      26      27      56      57
      58      59      60      61      62      25      26      27      56      57
      58      59      60      61      62      26      27      28      29      56
      57      58      59      60      61      62      63      64      65      27
      28      62      63      64      65      28      29      30      42      62
      63      64      65      29      30      31      34      36      41      42
      62      64      65      30      31      32      33      34      35      36
      37      39      41      42      64      65      31      32      33      34
      35      36      41      42      66      67      68      32      33      34
      35      42      66      67      33      34      35      66      67      34
      35      36      66      67      68      35      36      37      42      66
      67      68      36      37      38      41      42      67      68      69
      37      38      39      41      42      68      69      70      38      39
      40      41      42      68      69      70      39      40      41      42
      69      70      40      41      42      69      70      41      42      70
      42      70      68      69      44       0      46      47      47       0
      49      50      50       0      52       0       0      55       0      57
      58      58       0      60      61      61       0      63      64      65
       0      65       0      67       0       0      70       0
%FLAG HBOND_ACOEF                                                               
%FORMAT(5E16.8)                                                                 

%FLAG HBOND_BCOEF                                                               
%FORMAT(5E16.8)                                                                 

%FLAG HBCUT                                                                     
%FORMAT(5E16.8)                                                                 

%FLAG AMBER_ATOM_TYPE                                                           
%FORMAT(20a4)                                                                   
c2  c2  c3  c3  c3  os  ca  ca  os  cc  cd  ca  ca  ca  cc  cd  c   o   os  ca  
os  c3  c3  c3  c3  oh  c3  os  ca  ca  os  cc  cd  ca  ca  ca  cc  cd  c   o   
os  ca  ha  ha  hc  hc  hc  h1  h1  h1  h4  ha  ha  ha  ha  hc  hc  hc  hc  hc  
hc  h1  ho  h1  h1  h4  ha  ha  ha  ha  
%FLAG TREE_CHAIN_CLASSIFICATION                                                 
%FORMAT(20a4)                                                                   
BLA BLA BLA BLA BLA BLA BLA BLA BLA BLA BLA BLA BLA BLA BLA BLA BLA BLA BLA BLA 
BLA BLA BLA BLA BLA BLA BLA BLA BLA BLA BLA BLA BLA BLA BLA BLA BLA BLA BLA BLA 
BLA BLA BLA BLA BLA BLA BLA BLA BLA BLA BLA BLA BLA BLA BLA BLA BLA BLA BLA BLA 
BLA BLA BLA BLA BLA BLA BLA BLA BLA BLA 
%FLAG JOIN_ARRAY                                                                
%FORMAT(10I8)                                                                   
       0       0       0       0       0       0       0       0       0       0
       0       0       0       0       0       0       0       0       0       0
       0       0       0       0       0       0       0       0       0       0
       0       0       0       0       0       0       0       0       0       0
       0       0       0       0       0       0       0       0       0       0
       0       0       0       0       0       0       0       0       0       0
       0       0       0       0       0       0       0       0       0       0
%FLAG IROTAT                                                                    
%FORMAT(10I8)                                                                   
       0       0       0       0       0       0       0       0       0       0
       0       0       0       0       0       0       0       0       0       0
       0       0       0       0       0       0       0       0       0       0
       0       0       0       0       0       0       0       0       0       0
       0       0       0       0       0       0       0       0       0       0
       0       0       0       0       0       0       0       0       0       0
       0       0       0       0       0       0       0       0       0       0
%FLAG RADIUS_SET                                                                
%FORMAT(1a80)                                                                   
modified Bondi radii (mbondi)                                                   
%FLAG RADII                                                                     
%FORMAT(5E16.8)                                                                 
  1.70000000E+00  1.70000000E+00  1.70000000E+00  1.70000000E+00  1.70000000E+00
  1.50000000E+00  1.70000000E+00  1.70000000E+00  1.50000000E+00  1.70000000E+00
  1.70000000E+00  1.70000000E+00  1.70000000E+00  1.70000000E+00  1.70000000E+00
  1.70000000E+00  1.70000000E+00  1.50000000E+00  1.50000000E+00  1.70000000E+00
  1.50000000E+00  1.70000000E+00  1.70000000E+00  1.70000000E+00  1.70000000E+00
  1.50000000E+00  1.70000000E+00  1.50000000E+00  1.70000000E+00  1.70000000E+00
  1.50000000E+00  1.70000000E+00  1.70000000E+00  1.70000000E+00  1.70000000E+00
  1.70000000E+00  1.70000000E+00  1.70000000E+00  1.70000000E+00  1.50000000E+00
  1.50000000E+00  1.70000000E+00  1.30000000E+00  1.30000000E+00  1.30000000E+00
  1.30000000E+00  1.30000000E+00  1.30000000E+00  1.30000000E+00  1.30000000E+00
  1.30000000E+00  1.30000000E+00  1.30000000E+00  1.30000000E+00  1.30000000E+00
  1.30000000E+00  1.30000000E+00  1.30000000E+00  1.30000000E+00  1.30000000E+00
  1.30000000E+00  1.30000000E+00  8.00000000E-01  1.30000000E+00  1.30000000E+00
  1.30000000E+00  1.30000000E+00  1.30000000E+00  1.30000000E+00  1.30000000E+00
%FLAG SCREEN                                                                    
%FORMAT(5E16.8)                                                                 
  7.20000000E-01  7.20000000E-01  7.20000000E-01  7.20000000E-01  7.20000000E-01
  8.50000000E-01  7.20000000E-01  7.20000000E-01  8.50000000E-01  7.20000000E-01
  7.20000000E-01  7.20000000E-01  7.20000000E-01  7.20000000E-01  7.20000000E-01
  7.20000000E-01  7.20000000E-01  8.50000000E-01  8.50000000E-01  7.20000000E-01
  8.50000000E-01  7.20000000E-01  7.20000000E-01  7.20000000E-01  7.20000000E-01
  8.50000000E-01  7.20000000E-01  8.50000000E-01  7.20000000E-01  7.20000000E-01
  8.50000000E-01  7.20000000E-01  7.20000000E-01  7.20000000E-01  7.20000000E-01
  7.20000000E-01  7.20000000E-01  7.20000000E-01  7.20000000E-01  8.50000000E-01
  8.50000000E-01  7.20000000E-01  8.50000000E-01  8.50000000E-01  8.50000000E-01
  8.50000000E-01  8.50000000E-01  8.50000000E-01  8.50000000E-01  8.50000000E-01
  8.50000000E-01  8.50000000E-01  8.50000000E-01  8.50000000E-01  8.50000000E-01
  8.50000000E-01  8.50000000E-01  8.50000000E-01  8.50000000E-01  8.50000000E-01
  8.50000000E-01  8.50000000E-01  8.50000000E-01  8.50000000E-01  8.50000000E-01
  8.50000000E-01  8.50000000E-01  8.50000000E-01  8.50000000E-01  8.50000000E-01
%FLAG IPOL                                                                      
%FORMAT(1I8)                                                                    
       0
