%VERSION  VERSION_STAMP = V0001.000  DATE = 07/11/26  13:25:27                  
%FLAG TITLE                                                                     
%FORMAT(20a4)                                                                   
MOL                                                                             
%FLAG POINTERS                                                                  
%FORMAT(10I8)                                                                   
      91      13      45      48      98      67     174     100       0       0
     497       1      48      67     100      21      44      33      14       0
       0       0       0       0       0       0       0       0      91       0
       0
%FLAG ATOM_NAME                                                                 
%FORMAT(20a4)                                                                   
C1  C2  C3  C4  N1  C5  O1  C6  C7  N2  C8  C9  C10 C11 C12 C13 C14 C15 C16 N3  
C17 O2  C18 C19 C20 C21 O3  N4  C22 C23 C24 C25 C26 C27 F1  C28 C29 C30 C31 N5  
C32 S1  C33 O4  O5  C34 H1  H2  H3  H4  H5  H6  H7  H8  H9  H10 H11 H12 H13 H14 
H15 H16 H17 H18 H19 H20 H21 H22 H23 H24 H25 H26 H27 H28 H29 H30 H31 H32 H33 H34 
H35 H36 H37 H38 H39 H40 H41 H42 H43 H44 H45 
%FLAG CHARGE                                                                    
%FORMAT(5E16.8)                                                                 
 -1.74205188E+00 -1.57987341E+00 -1.74205188E+00  1.42133940E+00 -9.58310757E+00
  1.17369834E+01 -1.09716468E+01  7.92670050E-01 -2.27960973E+00 -1.36667250E+01
  1.89147474E+00  1.81676331E+00 -1.09516023E+00 -2.28325419E+00 -2.65134465E+00
 -2.14112025E+00 -1.98623070E+00 -2.14112025E+00 -2.65134465E+00 -1.05488895E+01
  1.25496980E+01 -1.20103179E+01 -2.76250068E+00 -1.09333800E+00 -2.30694318E+00
  1.21670297E+01 -1.08440907E+01 -1.02937773E+01  2.86090110E+00 -1.98805293E+00
 -2.24680959E+00 -1.72200735E+00 -3.02490180E+00  2.54929977E+00 -2.40352137E+00
 -3.02490180E+00 -1.72200735E+00 -1.18444950E+00  2.52561078E+00 -1.24257864E+01
  3.37294773E+00  2.66574027E+01 -6.85705149E+00 -1.18864063E+01 -1.18864063E+01
 -1.74934080E+00  7.93271386E-01  7.93271386E-01  7.93271386E-01  9.42092910E-01
  7.93271386E-01  7.93271386E-01  7.93271386E-01  1.44320616E+00  1.44320616E+00
  5.84024715E+00  2.09009781E+00  1.42194074E+00  1.42194074E+00  1.42194074E+00
  8.67928149E+00  8.67928149E+00  1.98987516E+00  1.98987516E+00  1.48876191E+00
  1.48876191E+00  1.48876191E+00  2.50556625E+00  2.73334500E+00  2.80623420E+00
  2.73334500E+00  2.50556625E+00  6.36869385E+00  2.84267880E+00  5.76735795E+00
  1.47053961E+00  9.17802584E-01  9.17802584E-01  9.17802584E-01  2.54201085E+00
  2.77890075E+00  2.77890075E+00  2.54201085E+00  3.24356940E+00  1.13038394E+00
  1.13038394E+00  1.13038394E+00  2.30876541E+00  2.30876541E+00  2.30876541E+00
  3.04312410E+00
%FLAG ATOMIC_NUMBER                                                             
%FORMAT(10I8)                                                                   
       6       6       6       6       7       6       8       6       6       7
       6       6       6       6       6       6       6       6       6       7
       6       8       6       6       6       6       8       7       6       6
       6       6       6       6       9       6       6       6       6       7
       6      16       6       8       8       6       1       1       1       1
       1       1       1       1       1       1       1       1       1       1
       1       1       1       1       1       1       1       1       1       1
       1       1       1       1       1       1       1       1       1       1
       1       1       1       1       1       1       1       1       1       1
       1
%FLAG MASS                                                                      
%FORMAT(5E16.8)                                                                 
  1.20100000E+01  1.20100000E+01  1.20100000E+01  1.20100000E+01  1.40100000E+01
  1.20100000E+01  1.60000000E+01  1.20100000E+01  1.20100000E+01  1.40100000E+01
  1.20100000E+01  1.20100000E+01  1.20100000E+01  1.20100000E+01  1.20100000E+01
  1.20100000E+01  1.20100000E+01  1.20100000E+01  1.20100000E+01  1.40100000E+01
  1.20100000E+01  1.60000000E+01  1.20100000E+01  1.20100000E+01  1.20100000E+01
  1.20100000E+01  1.60000000E+01  1.40100000E+01  1.20100000E+01  1.20100000E+01
  1.20100000E+01  1.20100000E+01  1.20100000E+01  1.20100000E+01  1.90000000E+01
  1.20100000E+01  1.20100000E+01  1.20100000E+01  1.20100000E+01  1.40100000E+01
  1.20100000E+01  3.20600000E+01  1.20100000E+01  1.60000000E+01  1.60000000E+01
  1.20100000E+01  1.00800000E+00  1.00800000E+00  1.00800000E+00  1.00800000E+00
  1.00800000E+00  1.00800000E+00  1.00800000E+00  1.00800000E+00  1.00800000E+00
  1.00800000E+00  1.00800000E+00  1.00800000E+00  1.00800000E+00  1.00800000E+00
  1.00800000E+00  1.00800000E+00  1.00800000E+00  1.00800000E+00  1.00800000E+00
  1.00800000E+00  1.00800000E+00  1.00800000E+00  1.00800000E+00  1.00800000E+00
  1.00800000E+00  1.00800000E+00  1.00800000E+00  1.00800000E+00  1.00800000E+00
  1.00800000E+00  1.00800000E+00  1.00800000E+00  1.00800000E+00  1.00800000E+00
  1.00800000E+00  1.00800000E+00  1.00800000E+00  1.00800000E+00  1.00800000E+00
  1.00800000E+00  1.00800000E+00  1.00800000E+00  1.00800000E+00  1.00800000E+00
  1.00800000E+00
%FLAG ATOM_TYPE_INDEX                                                           
%FORMAT(10I8)                                                                   
       1       1       1       1       2       3       4       1       1       5
       1       1       1       3       3       3       3       3       3       2
       3       4       3       3       3       3       4       2       1       1
       3       3       3       3       6       3       3       3       3       7
       1       8       1       4       4       3       9       9       9       9
       9       9       9      10      10      11      12       9       9       9
      11      11      12      12      10       9       9      13      13      13
      13      13      11      13      11      10       9       9       9      13
      13      13      13      13      10      10      10      10      10      10
      13
%FLAG NUMBER_EXCLUDED_ATOMS                                                     
%FORMAT(10I8)                                                                   
      13      14      11      14      10      14       5      13       8      13
      14      16      15      13      10       7       7       5       6      11
      10       4      10      10      11      11       4      11      13       8
      14       9       7       7       4       4       4       8      12      14
       8      10       5       4       3       3       3       2       1       5
       2       1       1       2       1       1       5       2       1       1
       3       2       2       1       3       1       1       1       1       1
       1       1       1       1       1       3       2       1       1       1
       1       1       1       1       2       1       1       2       1       1
       1
%FLAG NONBONDED_PARM_INDEX                                                      
%FORMAT(10I8)                                                                   
       1       2       4       7      11      16      22      29      37      46
      56      67      79       2       3       5       8      12      17      23
      30      38      47      57      68      80       4       5       6       9
      13      18      24      31      39      48      58      69      81       7
       8       9      10      14      19      25      32      40      49      59
      70      82      11      12      13      14      15      20      26      33
      41      50      60      71      83      16      17      18      19      20
      21      27      34      42      51      61      72      84      22      23
      24      25      26      27      28      35      43      52      62      73
      85      29      30      31      32      33      34      35      36      44
      53      63      74      86      37      38      39      40      41      42
      43      44      45      54      64      75      87      46      47      48
      49      50      51      52      53      54      55      65      76      88
      56      57      58      59      60      61      62      63      64      65
      66      77      89      67      68      69      70      71      72      73
      74      75      76      77      78      90      79      80      81      82
      83      84      85      86      87      88      89      90      91
%FLAG RESIDUE_LABEL                                                             
%FORMAT(20a4)                                                                   
MOL 
%FLAG RESIDUE_POINTER                                                           
%FORMAT(10I8)                                                                   
       1
%FLAG BOND_FORCE_CONSTANT                                                       
%FORMAT(5E16.8)                                                                 
  2.32500000E+02  3.75900000E+02  2.63800000E+02  3.75900000E+02  3.56200000E+02
  5.27300000E+02  6.52600000E+02  2.43200000E+02  2.22600000E+02  3.86500000E+02
  4.82900000E+02  2.50300000E+02  3.78600000E+02  3.95700000E+02  2.72700000E+02
  3.53600000E+02  3.47100000E+02  2.61800000E+02  3.01900000E+02  2.00100000E+02
  6.83000000E+02
%FLAG BOND_EQUIL_VALUE                                                          
%FORMAT(5E16.8)                                                                 
  1.53800000E+00  1.09700000E+00  1.46200000E+00  1.09700000E+00  1.37900000E+00
  1.01300000E+00  1.21800000E+00  1.52400000E+00  1.51100000E+00  1.09100000E+00
  1.03000000E+00  1.51600000E+00  1.39800000E+00  1.08600000E+00  1.49100000E+00
  1.34900000E+00  1.38600000E+00  1.46400000E+00  1.69800000E+00  1.80800000E+00
  1.45300000E+00
%FLAG ANGLE_FORCE_CONSTANT                                                      
%FORMAT(5E16.8)                                                                 
  6.49000000E+01  4.68000000E+01  8.32000000E+01  4.69000000E+01  6.53000000E+01
  4.61000000E+01  6.15000000E+01  1.13800000E+02  8.43000000E+01  4.87000000E+01
  6.53000000E+01  8.26000000E+01  4.74000000E+01  8.46000000E+01  6.45000000E+01
  4.62000000E+01  8.10000000E+01  4.67000000E+01  6.01000000E+01  6.52000000E+01
  6.56000000E+01  4.73000000E+01  6.88000000E+01  4.87000000E+01  8.54000000E+01
  6.64000000E+01  8.62000000E+01  8.35000000E+01  4.75000000E+01  8.93000000E+01
  8.62000000E+01  6.52000000E+01  6.32000000E+01  6.12000000E+01  9.09000000E+01
  1.23700000E+02  6.39000000E+01  4.36000000E+01  9.37000000E+01  1.28200000E+02
  3.90000000E+01  3.88000000E+01  4.00000000E+01  3.88000000E+01
%FLAG ANGLE_EQUIL_VALUE                                                         
%FORMAT(5E16.8)                                                                 
  1.94621748E+00  1.91637234E+00  1.94796281E+00  1.91218355E+00  2.10643878E+00
  2.05390434E+00  1.90031530E+00  2.14762857E+00  2.01027109E+00  2.05163542E+00
  1.93801443E+00  1.93260391E+00  1.89979171E+00  2.15024656E+00  1.91392888E+00
  1.92178286E+00  1.99334139E+00  1.92963685E+00  1.88513093E+00  1.95599133E+00
  2.10783504E+00  1.92806605E+00  2.09474507E+00  2.09230160E+00  2.01149283E+00
  2.10015559E+00  2.13977458E+00  1.96140185E+00  1.91218355E+00  2.07624457E+00
  2.11097664E+00  2.09404693E+00  2.14413791E+00  1.91619781E+00  1.82072826E+00
  1.87116829E+00  2.03313492E+00  1.87012110E+00  1.89560291E+00  2.09526867E+00
  1.87762601E+00  1.89298492E+00  1.89019239E+00  1.91549968E+00
%FLAG DIHEDRAL_FORCE_CONSTANT                                                   
%FORMAT(5E16.8)                                                                 
  8.00000000E-02  1.00000000E-01  1.55555556E-01  1.02000000E+00  1.70000000E-01
  1.00000000E-01  0.00000000E+00  2.50000000E+00  5.00000000E-01  2.60000000E-01
  7.10000000E-01  0.00000000E+00  0.00000000E+00  2.00000000E+00  7.40000000E-01
  2.70000000E-01  5.50000000E-01  1.56000000E-01  2.10000000E-01  2.45000000E-01
  3.62500000E+00  1.00000000E+00  5.22500000E-01  7.33000000E-01  1.05000000E+00
  3.32000000E-01  1.93000000E+00  1.00000000E-01  1.44444444E-01  1.20000000E-01
  1.09000000E-01  1.10000000E+00  1.05000000E+01
%FLAG DIHEDRAL_PERIODICITY                                                      
%FORMAT(5E16.8)                                                                 
  3.00000000E+00  3.00000000E+00  3.00000000E+00  1.00000000E+00  3.00000000E+00
  4.00000000E+00  2.00000000E+00  2.00000000E+00  1.00000000E+00  2.00000000E+00
  2.00000000E+00  4.00000000E+00  2.00000000E+00  1.00000000E+00  1.00000000E+00
  2.00000000E+00  3.00000000E+00  3.00000000E+00  3.00000000E+00  2.00000000E+00
  2.00000000E+00  2.00000000E+00  2.00000000E+00  2.00000000E+00  2.00000000E+00
  2.00000000E+00  3.00000000E+00  2.00000000E+00  3.00000000E+00  3.00000000E+00
  3.00000000E+00  2.00000000E+00  2.00000000E+00
%FLAG DIHEDRAL_PHASE                                                            
%FORMAT(5E16.8)                                                                 
  0.00000000E+00  0.00000000E+00  0.00000000E+00  3.14159400E+00  0.00000000E+00
  3.14159400E+00  0.00000000E+00  3.14159400E+00  0.00000000E+00  3.14159400E+00
  3.14159400E+00  3.14159400E+00  3.14159400E+00  0.00000000E+00  0.00000000E+00
  3.14159400E+00  3.14159400E+00  0.00000000E+00  0.00000000E+00  3.14159400E+00
  3.14159400E+00  3.14159400E+00  3.14159400E+00  3.14159400E+00  3.14159400E+00
  0.00000000E+00  0.00000000E+00  3.14159400E+00  0.00000000E+00  0.00000000E+00
  0.00000000E+00  3.14159400E+00  3.14159400E+00
%FLAG SCEE_SCALE_FACTOR                                                         
%FORMAT(5E16.8)                                                                 
  1.20000000E+00  1.20000000E+00  1.20000000E+00  1.20000000E+00  1.20000000E+00
  1.20000000E+00  1.20000000E+00  1.20000000E+00  1.20000000E+00  1.20000000E+00
  1.20000000E+00  1.20000000E+00  1.20000000E+00  1.20000000E+00  1.20000000E+00
  1.20000000E+00  1.20000000E+00  1.20000000E+00  1.20000000E+00  1.20000000E+00
  1.20000000E+00  1.20000000E+00  1.20000000E+00  1.20000000E+00  1.20000000E+00
  1.20000000E+00  1.20000000E+00  1.20000000E+00  1.20000000E+00  1.20000000E+00
  1.20000000E+00  0.00000000E+00  0.00000000E+00
%FLAG SCNB_SCALE_FACTOR                                                         
%FORMAT(5E16.8)                                                                 
  2.00000000E+00  2.00000000E+00  2.00000000E+00  2.00000000E+00  2.00000000E+00
  2.00000000E+00  2.00000000E+00  2.00000000E+00  2.00000000E+00  2.00000000E+00
  2.00000000E+00  2.00000000E+00  2.00000000E+00  2.00000000E+00  2.00000000E+00
  2.00000000E+00  2.00000000E+00  2.00000000E+00  2.00000000E+00  2.00000000E+00
  2.00000000E+00  2.00000000E+00  2.00000000E+00  2.00000000E+00  2.00000000E+00
  2.00000000E+00  2.00000000E+00  2.00000000E+00  2.00000000E+00  2.00000000E+00
  2.00000000E+00  0.00000000E+00  0.00000000E+00
%FLAG SOLTY                                                                     
%FORMAT(5E16.8)                                                                 
  0.00000000E+00  0.00000000E+00  0.00000000E+00  0.00000000E+00  0.00000000E+00
  0.00000000E+00  0.00000000E+00  0.00000000E+00  0.00000000E+00  0.00000000E+00
  0.00000000E+00  0.00000000E+00  0.00000000E+00  0.00000000E+00
%FLAG LENNARD_JONES_ACOEF                                                       
%FORMAT(5E16.8)                                                                 
  1.02073671E+06  8.48258258E+05  7.01825028E+05  8.43969952E+05  6.99381362E+05
  6.96551276E+05  6.30925504E+05  5.17814271E+05  5.17507491E+05  3.76435470E+05
  1.05585319E+06  8.53827536E+05  8.57868716E+05  6.04034764E+05  9.21667821E+05
  4.63627012E+05  3.80309307E+05  3.80155513E+05  2.76207447E+05  4.42421587E+05
  2.02652992E+05  9.93125065E+05  8.19347611E+05  8.17329084E+05  6.01376873E+05
  9.82151258E+05  4.41532129E+05  9.54790629E+05  2.09089895E+06  1.74537186E+06
  1.73376823E+06  1.30884564E+06  2.22338393E+06  9.62298009E+05  2.04935397E+06
  4.26366419E+06  1.00235148E+05  8.07866982E+04  8.12662403E+04  5.68021765E+04
  8.56896524E+04  4.15877422E+04  9.27277603E+04  2.11783234E+05  7.94617769E+03
  6.97998263E+04  5.58085097E+04  5.63013422E+04  3.86646725E+04  5.67478525E+04
  2.82810778E+04  6.37258620E+04  1.48672098E+05  5.22955465E+03  3.39005767E+03
  2.23577481E+03  1.65195713E+03  1.71458823E+03  9.87857350E+02  1.09663857E+03
  7.15600927E+02  1.79157166E+03  5.15374979E+03  9.47421632E+01  5.24570081E+01
  1.34728399E-01  2.19657590E+04  1.70902479E+04  1.74110867E+04  1.12566992E+04
  1.50274297E+04  8.20643968E+03  1.91715719E+04  4.80874647E+04  1.35510742E+03
  8.33358592E+02  7.30589786E+00  1.70079100E+02  9.27554496E+04  7.48403283E+04
  7.52549148E+04  5.27277400E+04  7.98423866E+04  3.86097375E+04  8.59636060E+04
  1.95762765E+05  7.41026906E+03  4.88692384E+03  9.04434904E+01  1.27542632E+03
  6.90855956E+03
%FLAG LENNARD_JONES_BCOEF                                                       
%FORMAT(5E16.8)                                                                 
  6.63431737E+02  6.17825399E+02  5.74088001E+02  5.90251928E+02  5.48900066E+02
  5.24668528E+02  5.62969425E+02  5.21008860E+02  4.98871431E+02  4.69350655E+02
  1.34380581E+03  1.23447460E+03  1.18516743E+03  1.09703909E+03  2.50044513E+03
  4.19082844E+02  3.87745109E+02  3.71304925E+02  3.49131956E+02  8.15321777E+02
  2.59697739E+02  7.77671659E+02  7.21590374E+02  6.90283231E+02  6.53166727E+02
  1.54020617E+03  4.86017154E+02  9.06156687E+02  1.20800124E+03  1.12747567E+03
  1.07629402E+03  1.03157656E+03  2.48086687E+03  7.68124812E+02  1.42122969E+03
  2.19459223E+03  1.37787728E+02  1.26366740E+02  1.21392023E+02  1.11953944E+02
  2.53723142E+02  8.31877412E+01  1.57492664E+02  2.54804909E+02  2.57122925E+01
  1.14981426E+02  1.05029928E+02  1.01040256E+02  9.23664132E+01  2.06476488E+02
  6.86000827E+01  1.30560951E+02  2.13489607E+02  2.08590256E+01  1.67944276E+01
  1.71355763E+01  1.50468782E+01  1.46824710E+01  1.22938581E+01  2.39007657E+01
  9.08649254E+00  1.82287422E+01  3.30984635E+01  2.33785449E+00  1.73959275E+00
  7.34107347E-02  6.45020662E+01  5.81215296E+01  5.61885732E+01  4.98382106E+01
  1.06252276E+02  3.69533701E+01  7.16117531E+01  1.21416565E+02  1.06181419E+01
  8.32679019E+00  6.49206153E-01  3.76172582E+00  1.24325688E+02  1.14083104E+02
  1.09570372E+02  1.01173582E+02  2.29722366E+02  7.51823196E+01  1.42233990E+02
  2.29782888E+02  2.32899892E+01  1.89134207E+01  2.14252117E+00  9.66228818E+00
  2.10929191E+01
%FLAG BONDS_INC_HYDROGEN                                                        
%FORMAT(10I8)                                                                   
       0     138       2       0     141       2       0     144       2       3
     147       2       6     150       2       6     153       2       6     156
       2       9     159       4       9     162       4      12     165       6
      21     168      10      24     171       2      24     174       2      24
     177       2      27     180      11      27     183      11      30     186
      10      30     189      10      33     192       4      36     195       2
      36     198       2      42     201      14      45     204      14      48
     207      14      51     210      14      54     213      14      57     216
       6      69     219      14      81     222       6      84     225       4
      87     228       2      87     231       2      87     234       2      93
     237      14      96     240      14     105     243      14     108     246
      14     111     249      14     120     252       4     120     255       4
     120     258       4     126     261       4     126     264       4     126
     267       4     135     270      14
%FLAG BONDS_WITHOUT_HYDROGEN                                                    
%FORMAT(10I8)                                                                   
       0       3       1       3       6       1       3       9       1       9
      12       3      12      15       5      15      18       7      15      21
       8      21      24       1      21      27       9      27      30       9
      30      33       1      33      36       1      33      57       3      36
      39      12      39      42      13      39      54      13      42      45
      13      45      48      13      48      51      13      51      54      13
      57      60       5      60      63       7      60      66      15      66
      69      13      66     135      13      69      72      13      72      75
      15      72     111      13      75      78       7      75      81       5
      81      84       3      84      87       1      84      90      12      90
      93      13      90     108      13      93      96      13      96      99
      13      99     102      16      99     105      13     105     108      13
     111     114      13     114     117      17     114     135      13     117
     120      18     117     123      19     123     126      20     123     129
      21     123     132      21
%FLAG ANGLES_INC_HYDROGEN                                                       
%FORMAT(10I8)                                                                   
       0       3     147       2       3       0     138       2       3       0
     141       2       3       0     144       2       3       6     150       2
       3       6     153       2       3       6     156       2       3       9
     159       4       3       9     162       4       6       3     147       2
       9       3     147       2       9      12     165       6      12       9
     159       7      12       9     162       7      15      12     165      10
      15      21     168      13      21      24     171       2      21      24
     174       2      21      24     177       2      21      27     180      16
      21      27     183      16      24      21     168      18      27      21
     168      19      27      30     186      19      27      30     189      19
      30      27     180      16      30      27     183      16      30      33
     192       4      33      30     186      18      33      30     189      18
      33      36     195       2      33      36     198       2      33      57
     216       6      36      33     192       4      39      36     195      22
      39      36     198      22      39      42     201      24      39      54
     213      24      42      45     204      24      45      42     201      24
      45      48     207      24      48      45     204      24      48      51
     210      24      51      48     207      24      51      54     213      24
      54      51     210      24      57      33     192       7      60      57
     216      10      66      69     219      24      66     135     270      24
      72      69     219      24      72     111     249      24      75      81
     222      10      81      84     225       7      84      81     222       6
      84      87     228       2      84      87     231       2      84      87
     234       2      87      84     225       4      90      84     225      29
      90      93     237      24      90     108     246      24      93      96
     240      24      96      93     237      24      99      96     240      24
      99     105     243      24     105     108     246      24     108     105
     243      24     114     111     249      24     114     135     270      24
     117     120     252      34     117     120     255      34     117     120
     258      34     123     126     261      38     123     126     264      38
     123     126     267      38     138       0     141      41     138       0
     144      41     141       0     144      41     150       6     153      41
     150       6     156      41     153       6     156      41     159       9
     162      42     171      24     174      41     171      24     177      41
     174      24     177      41     180      27     183      43     186      30
     189      44     195      36     198      41     228      87     231      41
     228      87     234      41     231      87     234      41     252     120
     255      42     252     120     258      42     255     120     258      42
     261     126     264      42     261     126     267      42     264     126
     267      42
%FLAG ANGLES_WITHOUT_HYDROGEN                                                   
%FORMAT(10I8)                                                                   
       0       3       6       1       0       3       9       1       3       9
      12       3       6       3       9       1       9      12      15       5
      12      15      18       8      12      15      21       9      15      21
      24      11      15      21      27      12      18      15      21      14
      21      27      30      15      24      21      27      17      27      30
      33      17      30      33      36       1      30      33      57       3
      33      36      39      20      33      57      60       5      36      33
      57       3      36      39      42      21      36      39      54      21
      39      42      45      23      39      54      51      23      42      39
      54      23      42      45      48      23      45      48      51      23
      48      51      54      23      57      60      63       8      57      60
      66      25      60      66      69      26      60      66     135      26
      63      60      66      27      66      69      72      23      66     135
     114      23      69      66     135      23      69      72      75      26
      69      72     111      23      72      75      78      27      72      75
      81      25      72     111     114      23      75      72     111      26
      75      81      84       5      78      75      81       8      81      84
      87       3      81      84      90      28      84      90      93      21
      84      90     108      21      87      84      90      20      90      93
      96      23      90     108     105      23      93      90     108      23
      93      96      99      23      96      99     102      30      96      99
     105      23      99     105     108      23     102      99     105      30
     111     114     117      31     111     114     135      23     114     117
     120      32     114     117     123      33     117     114     135      31
     117     123     126      35     117     123     129      36     117     123
     132      36     120     117     123      37     126     123     129      39
     126     123     132      39     129     123     132      40
%FLAG DIHEDRALS_INC_HYDROGEN                                                    
%FORMAT(10I8)                                                                   
       0       3       6     150       1       0       3       6     153       1
       0       3       6     156       1       0       3       9     159       3
       0       3       9     162       3       3       9      12     165       7
     138       0       3       6       1     141       0       3       6       1
     144       0       3       6       1       6       3       9     159       3
       6       3       9     162       3     138       0       3       9       1
     141       0       3       9       1     144       0       3       9       1
       9       3       6     150       1       9       3       6     153       1
       9       3       6     156       1      12       9       3     147       3
      12      15      21     168      13      15      12       9     159      13
      15      12       9     162      13      15      21      24     171       3
      15      21      24     174       3      15      21      24     177       3
      15      21      27     180       3      15      21      27     183       3
      18      15      12     165      14      18      15     -12     165       8
      18      15      21     168      13      21      15      12     165       8
      21      27      30     186       3      21      27      30     189       3
      24      21      27     180       3      24      21      27     183       3
      27      21      24     171       3      27      21      24     174       3
      27      21      24     177       3      27      30      33     192       3
      30      27      21     168       3      30      33      36     195       1
      30      33      36     198       1      30      33      57     216       7
      33      30      27     180       3      33      30      27     183       3
      36      33      30     186       3      36      33      30     189       3
      36      33      57     216       7      36      39      42     201      21
      36      39      54     213      21      39      36      33     192       3
      39      42      45     204      21      39      54      51     210      21
      42      39      36     195      13      42      39      36     198      13
      42      39      54     213      21      42      45      48     207      21
      45      48      51     210      21      48      45      42     201      21
      48      51      54     213      21      51      48      45     204      21
      54      51      48     207      21      54      39      36     195      13
      54      39      36     198      13      54      39      42     201      21
      57      33      30     186       3      57      33      30     189       3
      57      33      36     195       3      57      33      36     198       3
      60      57      33     192      13      60      66      69     219      21
      60      66     135     270      21      63      60      57     216      14
      63      60     -57     216       8      66      60      57     216       8
      69      66     135     270      21      69      72     111     249      21
      72      75      81     222       8      75      72      69     219      21
      75      72     111     249      21      75      81      84     225      13
      78      75      81     222      14      78      75     -81     222       8
      81      84      87     228       3      81      84      87     231       3
      81      84      87     234       3      84      90      93     237      21
      84      90     108     246      21      87      84      81     222       7
      90      84      81     222       7      90      84      87     228       3
      90      84      87     231       3      90      84      87     234       3
      90      93      96     240      21      90     108     105     243      21
      93      90      84     225       7      93      90     108     246      21
      96      99     105     243      21      99      96      93     237      21
      99     105     108     246      21     102      99      96     240      21
     102      99     105     243      21     105      99      96     240      21
     108      90      84     225       7     108      90      93     237      21
     111      72      69     219      21     111     114     135     270      21
     114     117     120     252      26     114     117     120     255      26
     114     117     120     258      26     117     114     111     249      21
     117     114     135     270      21     117     123     126     261      29
     117     123     126     264      29     117     123     126     267      29
     123     117     120     252       7     123     117     120     255       7
     123     117     120     258       7     129     123     126     261      29
     129     123     126     264      29     129     123     126     267      29
     132     123     126     261      29     132     123     126     264      29
     132     123     126     267      29     135     114     111     249      21
     135      66      69     219      21     138       0       3     147      30
     141       0       3     147      30     144       0       3     147      30
     147       3       6     150      30     147       3       6     153      30
     147       3       6     156      30     147       3       9     159       3
     147       3       9     162       3     159       9      12     165       7
     162       9      12     165       7     168      21      24     171       3
     168      21      24     174       3     168      21      24     177       3
     168      21      27     180      31     168      21      27     183      31
     180      27      30     186      31     180      27      30     189      31
     183      27      30     186      31     183      27      30     189      31
     186      30      33     192       3     189      30      33     192       3
     192      33      36     195       3     192      33      36     198       3
     192      33      57     216       7     201      42      45     204      21
     204      45      48     207      21     207      48      51     210      21
     210      51      54     213      21     222      81      84     225       7
     225      84      87     228       3     225      84      87     231       3
     225      84      87     234       3     237      93      96     240      21
     243     105     108     246      21      15       9     -12    -165      32
      39      45     -42    -201      32      42      48     -45    -204      32
      45      51     -48    -207      32      48      54     -51    -210      32
      39      51     -54    -213      32      60      33     -57    -216      32
      66      72     -69    -219      32      75      84     -81    -222      32
      90      96     -93    -237      32      93      99     -96    -240      32
      99     108    -105    -243      32      90     105    -108    -246      32
      72     114    -111    -249      32      66     114    -135    -270      32
%FLAG DIHEDRALS_WITHOUT_HYDROGEN                                                
%FORMAT(10I8)                                                                   
       0       3       9      12       2       3       9      12      15       4
       3       9     -12      15       5       3       9     -12      15       6
       6       3       9      12       2       9      12      15      18       8
       9      12      15      21       9       9      12     -15      21      10
      12      15      21      24      11      12      15     -21      24      12
      12      15      21      27      13      15      21      27      30       3
      18      15      21      24      15      18      15     -21      24      16
      18      15     -21      24      17      18      15      21      27      13
      21      27      30      33      18      24      21      27      30      18
      27      30      33      36      19      27      30      33      57       3
      30      33      36      39       3      30      33      57      60       4
      30      33     -57      60       5      30      33     -57      60       6
      33      36      39      42      20      33      36      39      54      20
      33      57      60      63       8      33      57      60      66       8
      36      33      57      60       4      36      33     -57      60       5
      36      33     -57      60       6      36      39      42      45      21
      36      39      54      51      21      39      36      33      57      19
      39      42      45      48      21      39      54     -51      48      21
      42      39      54      51      21      42      45     -48      51      21
      45      42      39      54      21      45      48     -51      54      21
      57      60      66      69      22      57      60      66     135      22
      60      66      69      72      21      60      66     135     114      21
      63      60      66      69      23      63      60      66     135      23
      66      69      72      75      21      66      69      72     111      21
      66     135    -114     111      21      66     135     114     117      21
      69      66     135     114      21      69      72      75      78      23
      69      72      75      81      22      69      72    -111     114      21
      72      69      66     135      21      72      75      81      84       8
      72     111     114     117      21      72     111    -114     135      21
      75      72     111     114      21      75      81      84      87       4
      75      81     -84      87       5      75      81     -84      87       6
      75      81      84      90       7      78      75      72     111      23
      78      75      81      84       8      81      75      72     111      22
      81      84      90      93       7      81      84      90     108       7
      84      90      93      96      21      84      90     108     105      21
      87      84      90      93      20      87      84      90     108      20
      90      93      96      99      21      90     108    -105      99      21
      93      90     108     105      21      93      96      99     102      21
      93      96     -99     105      21      96      93      90     108      21
      96      99    -105     108      21     102      99     105     108      21
     111     114     117     120      24     111     114     117     123      25
     114     117     123     126      27     114     117     123     129      28
     114     117     123     132      28     120     117     114     135      24
     120     117     123     126      28     120     117     123     129      28
     120     117     123     132      28     123     117     114     135      25
      21      12     -15     -18      33      42      54     -39     -36      32
      66      57     -60     -63      33      60      69     -66    -135      32
      75      69     -72    -111      32      72      81     -75     -78      33
      84      93     -90    -108      32      96     105     -99    -102      32
     111     135    -114    -117      32     120     114    -117    -123      32
%FLAG EXCLUDED_ATOMS_LIST                                                       
%FORMAT(10I8)                                                                   
       2       3       4       5      47      48      49      50      51      52
      53      54      55       3       4       5       6      47      48      49
      50      51      52      53      54      55      56       4       5      47
      48      49      50      51      52      53      54      55       5       6
       7       8      47      48      49      50      51      52      53      54
      55      56       6       7       8       9      10      50      54      55
      56      57       7       8       9      10      11      54      55      56
      57      58      59      60      61      62       8       9      10      56
      57       9      10      11      12      56      57      58      59      60
      61      62      63      64      10      11      57      58      59      60
      61      62      11      12      13      20      57      58      59      60
      61      62      63      64      65      12      13      14      20      21
      57      61      62      63      64      65      66      67      73      13
      14      15      19      20      21      22      23      61      62      63
      64      65      66      67      73      14      15      16      18      19
      20      21      63      64      65      66      67      68      72      73
      15      16      17      18      19      20      65      66      67      68
      69      71      72      16      17      18      19      66      67      68
      69      70      72      17      18      19      68      69      70      71
      18      19      68      69      70      71      72      19      69      70
      71      72      66      67      68      70      71      72      21      22
      23      24      46      63      64      65      66      67      73      22
      23      24      25      39      46      65      73      74      91      23
      24      46      73      24      25      26      38      39      40      46
      73      74      91      25      26      27      28      38      39      46
      74      84      91      26      27      28      29      38      39      40
      46      74      75      84      27      28      29      30      31      38
      39      74      75      76      84      28      29      38      75      29
      30      31      32      37      38      75      76      77      78      79
      30      31      32      33      36      37      75      76      77      78
      79      80      83      31      32      37      75      76      77      78
      79      32      33      34      36      37      75      76      77      78
      79      80      81      82      83      33      34      35      36      37
      76      80      81      83      34      35      36      37      80      81
      82      35      36      37      80      81      82      83      36      37
      81      82      37      81      82      83      76      80      82      83
      39      40      41      42      46      74      84      91      40      41
      42      43      44      45      46      84      85      86      87      91
      41      42      43      44      45      46      84      85      86      87
      88      89      90      91      42      43      44      45      46      85
      86      87      43      44      45      46      85      86      87      88
      89      90      44      45      88      89      90      45      88      89
      90      88      89      90      74      84      91      48      49      50
      49      50      50      51      52      53      54      55      52      53
      53       0      55      56      56       0      58      59      60      61
      62      59      60      60       0      62      63      64      63      64
      64      65      65      66      67      73      67       0      69      70
      71      72       0       0       0      76      77      78      79      78
      79      79       0      81       0      83       0       0      86      87
      87       0      89      90      90       0       0
%FLAG HBOND_ACOEF                                                               
%FORMAT(5E16.8)                                                                 

%FLAG HBOND_BCOEF                                                               
%FORMAT(5E16.8)                                                                 

%FLAG HBCUT                                                                     
%FORMAT(5E16.8)                                                                 

%FLAG AMBER_ATOM_TYPE                                                           
%FORMAT(20a4)                                                                   
c3  c3  c3  c3  ns  c   o   c3  c3  ny  c3  c3  c3  ca  ca  ca  ca  ca  ca  ns  
c   o   ca  ca  ca  c   o   ns  c3  c3  ca  ca  ca  ca  f   ca  ca  ca  ca  nh  
c3  s6  c3  o   o   ca  hc  hc  hc  hc  hc  hc  hc  h1  h1  hn  hx  hc  hc  hc  
hn  hn  hx  hx  h1  hc  hc  ha  ha  ha  ha  ha  hn  ha  hn  h1  hc  hc  hc  ha  
ha  ha  ha  ha  h1  h1  h1  h1  h1  h1  ha  
%FLAG TREE_CHAIN_CLASSIFICATION                                                 
%FORMAT(20a4)                                                                   
BLA BLA BLA BLA BLA BLA BLA BLA BLA BLA BLA BLA BLA BLA BLA BLA BLA BLA BLA BLA 
BLA BLA BLA BLA BLA BLA BLA BLA BLA BLA BLA BLA BLA BLA BLA BLA BLA BLA BLA BLA 
BLA BLA BLA BLA BLA BLA BLA BLA BLA BLA BLA BLA BLA BLA BLA BLA BLA BLA BLA BLA 
BLA BLA BLA BLA BLA BLA BLA BLA BLA BLA BLA BLA BLA BLA BLA BLA BLA BLA BLA BLA 
BLA BLA BLA BLA BLA BLA BLA BLA BLA BLA BLA 
%FLAG JOIN_ARRAY                                                                
%FORMAT(10I8)                                                                   
       0       0       0       0       0       0       0       0       0       0
       0       0       0       0       0       0       0       0       0       0
       0       0       0       0       0       0       0       0       0       0
       0       0       0       0       0       0       0       0       0       0
       0       0       0       0       0       0       0       0       0       0
       0       0       0       0       0       0       0       0       0       0
       0       0       0       0       0       0       0       0       0       0
       0       0       0       0       0       0       0       0       0       0
       0       0       0       0       0       0       0       0       0       0
       0
%FLAG IROTAT                                                                    
%FORMAT(10I8)                                                                   
       0       0       0       0       0       0       0       0       0       0
       0       0       0       0       0       0       0       0       0       0
       0       0       0       0       0       0       0       0       0       0
       0       0       0       0       0       0       0       0       0       0
       0       0       0       0       0       0       0       0       0       0
       0       0       0       0       0       0       0       0       0       0
       0       0       0       0       0       0       0       0       0       0
       0       0       0       0       0       0       0       0       0       0
       0       0       0       0       0       0       0       0       0       0
       0
%FLAG RADIUS_SET                                                                
%FORMAT(1a80)                                                                   
modified Bondi radii (mbondi)                                                   
%FLAG RADII                                                                     
%FORMAT(5E16.8)                                                                 
  1.70000000E+00  1.70000000E+00  1.70000000E+00  1.70000000E+00  1.55000000E+00
  1.70000000E+00  1.50000000E+00  1.70000000E+00  1.70000000E+00  1.55000000E+00
  1.70000000E+00  1.70000000E+00  1.70000000E+00  1.70000000E+00  1.70000000E+00
  1.70000000E+00  1.70000000E+00  1.70000000E+00  1.70000000E+00  1.55000000E+00
  1.70000000E+00  1.50000000E+00  1.70000000E+00  1.70000000E+00  1.70000000E+00
  1.70000000E+00  1.50000000E+00  1.55000000E+00  1.70000000E+00  1.70000000E+00
  1.70000000E+00  1.70000000E+00  1.70000000E+00  1.70000000E+00  1.50000000E+00
  1.70000000E+00  1.70000000E+00  1.70000000E+00  1.70000000E+00  1.55000000E+00
  1.70000000E+00  1.80000000E+00  1.70000000E+00  1.50000000E+00  1.50000000E+00
  1.70000000E+00  1.30000000E+00  1.30000000E+00  1.30000000E+00  1.30000000E+00
  1.30000000E+00  1.30000000E+00  1.30000000E+00  1.30000000E+00  1.30000000E+00
  1.30000000E+00  1.30000000E+00  1.30000000E+00  1.30000000E+00  1.30000000E+00
  1.30000000E+00  1.30000000E+00  1.30000000E+00  1.30000000E+00  1.30000000E+00
  1.30000000E+00  1.30000000E+00  1.30000000E+00  1.30000000E+00  1.30000000E+00
  1.30000000E+00  1.30000000E+00  1.30000000E+00  1.30000000E+00  1.30000000E+00
  1.30000000E+00  1.30000000E+00  1.30000000E+00  1.30000000E+00  1.30000000E+00
  1.30000000E+00  1.30000000E+00  1.30000000E+00  1.30000000E+00  1.30000000E+00
  1.30000000E+00  1.30000000E+00  1.30000000E+00  1.30000000E+00  1.30000000E+00
  1.30000000E+00
%FLAG SCREEN                                                                    
%FORMAT(5E16.8)                                                                 
  7.20000000E-01  7.20000000E-01  7.20000000E-01  7.20000000E-01  7.90000000E-01
  7.20000000E-01  8.50000000E-01  7.20000000E-01  7.20000000E-01  7.90000000E-01
  7.20000000E-01  7.20000000E-01  7.20000000E-01  7.20000000E-01  7.20000000E-01
  7.20000000E-01  7.20000000E-01  7.20000000E-01  7.20000000E-01  7.90000000E-01
  7.20000000E-01  8.50000000E-01  7.20000000E-01  7.20000000E-01  7.20000000E-01
  7.20000000E-01  8.50000000E-01  7.90000000E-01  7.20000000E-01  7.20000000E-01
  7.20000000E-01  7.20000000E-01  7.20000000E-01  7.20000000E-01  8.80000000E-01
  7.20000000E-01  7.20000000E-01  7.20000000E-01  7.20000000E-01  7.90000000E-01
  7.20000000E-01  9.60000000E-01  7.20000000E-01  8.50000000E-01  8.50000000E-01
  7.20000000E-01  8.50000000E-01  8.50000000E-01  8.50000000E-01  8.50000000E-01
  8.50000000E-01  8.50000000E-01  8.50000000E-01  8.50000000E-01  8.50000000E-01
  8.50000000E-01  8.50000000E-01  8.50000000E-01  8.50000000E-01  8.50000000E-01
  8.50000000E-01  8.50000000E-01  8.50000000E-01  8.50000000E-01  8.50000000E-01
  8.50000000E-01  8.50000000E-01  8.50000000E-01  8.50000000E-01  8.50000000E-01
  8.50000000E-01  8.50000000E-01  8.50000000E-01  8.50000000E-01  8.50000000E-01
  8.50000000E-01  8.50000000E-01  8.50000000E-01  8.50000000E-01  8.50000000E-01
  8.50000000E-01  8.50000000E-01  8.50000000E-01  8.50000000E-01  8.50000000E-01
  8.50000000E-01  8.50000000E-01  8.50000000E-01  8.50000000E-01  8.50000000E-01
  8.50000000E-01
%FLAG IPOL                                                                      
%FORMAT(1I8)                                                                    
       0
