MOL
    91
   0.0500000  -4.2360000   0.2900000   1.0530000  -5.2810000  -0.2030000
   1.7780000  -5.9090000   0.9890000   2.0770000  -4.6870000  -1.1830000
   1.4600000  -4.2640000  -2.4310000   1.1580000  -2.9490000  -2.6830000
   1.3790000  -2.0280000  -1.8950000   0.4450000  -2.6520000  -4.0190000
   1.3720000  -2.8680000  -5.2030000  -0.0160000  -1.2210000  -4.0060000
  -1.1960000  -0.8490000  -4.8330000  -1.6260000   0.6340000  -4.6190000
  -0.8540000   1.6070000  -5.5510000   0.6490000   1.5380000  -5.4190000
   1.2990000   2.0850000  -4.3050000   2.6810000   1.9580000  -4.1590000
   3.4280000   1.2960000  -5.1310000   2.7970000   0.7730000  -6.2570000
   1.4150000   0.8940000  -6.4040000  -1.6310000   1.1340000  -3.2280000
  -1.8310000   0.3820000  -2.0920000  -1.7750000  -0.8430000  -2.0970000
  -1.9760000   1.1280000  -0.8200000  -1.3810000   0.6170000   0.3390000
  -1.4180000   1.3670000   1.5200000  -0.7550000   0.9120000   2.7710000
  -0.3700000   1.7480000   3.5800000  -0.6320000  -0.4450000   2.9560000
   0.0010000  -0.9980000   4.1470000   1.5260000  -0.9240000   4.0230000
  -0.5570000  -2.3920000   4.3970000  -1.8490000  -2.5070000   4.9490000
  -2.4240000  -3.7590000   5.1750000  -1.7130000  -4.9050000   4.8490000
  -2.2630000  -6.1070000   5.0600000  -0.4390000  -4.8220000   4.3030000
   0.1370000  -3.5690000   4.0720000  -2.0280000   2.6320000   1.5280000
  -2.6460000   3.1200000   0.3770000  -3.1770000   4.4500000   0.3030000
  -4.0030000   4.9490000   1.4190000  -2.2490000   5.6000000  -0.5550000
  -1.0260000   6.0810000   0.6500000  -1.5680000   4.9290000  -1.6490000
  -3.0940000   6.7470000  -0.8100000  -2.6420000   2.3540000  -0.7880000
  -0.6420000  -4.6770000   1.0160000   0.5560000  -3.3930000   0.7720000
  -0.5540000  -3.8440000  -0.5340000   0.4920000  -6.0730000  -0.7150000
   2.4790000  -6.6810000   0.6560000   2.3420000  -5.1570000   1.5520000
   1.0640000  -6.3800000   1.6730000   2.8200000  -5.4450000  -1.4550000
   2.6110000  -3.8460000  -0.7270000   1.2480000  -4.9910000  -3.1040000
  -0.4490000  -3.2830000  -4.0830000   2.2780000  -2.2600000  -5.1140000
   0.8810000  -2.6160000  -6.1480000   1.6900000  -3.9140000  -5.2630000
   0.7840000  -0.5800000  -4.1020000  -0.3150000  -1.0680000  -3.0210000
  -2.0100000  -1.5190000  -4.5340000  -0.9560000  -1.0520000  -5.8810000
  -2.6790000   0.6970000  -4.9260000  -1.1750000   2.6410000  -5.3680000
  -1.1330000   1.3910000  -6.5900000   0.7450000   2.6320000  -3.5440000
   3.1810000   2.3950000  -3.2970000   4.5090000   1.2180000  -5.0250000
   3.3900000   0.2900000  -7.0320000   0.9490000   0.4960000  -7.3030000
  -1.6260000   2.1470000  -3.1210000  -0.8470000  -0.3290000   0.2930000
  -1.0370000  -1.1010000   2.3040000  -0.2780000  -0.3700000   5.0040000
   2.0170000  -1.3800000   4.8890000   1.8610000   0.1170000   3.9600000
   1.8840000  -1.4270000   3.1170000  -2.4130000  -1.6130000   5.2090000
  -3.4170000  -3.8460000   5.6050000   0.0990000  -5.7330000   4.0620000
   1.1330000  -3.5350000   3.6390000  -2.0000000   3.2290000   2.4370000
  -4.7130000   4.1770000   1.7350000  -4.5950000   5.8130000   1.1050000
  -3.3860000   5.2280000   2.2770000  -0.3740000   6.8220000   0.1810000
  -0.4380000   5.2080000   0.9360000  -1.5220000   6.5270000   1.5130000
  -3.1370000   2.7460000  -1.6730000
