%VERSION  VERSION_STAMP = V0001.000  DATE = 07/11/26  14:09:29                  
%FLAG TITLE                                                                     
%FORMAT(20a4)                                                                   
MOL                                                                             
%FLAG POINTERS                                                                  
%FORMAT(10I8)                                                                   
      45       8      27      17      60      18      98      20       0       0
     227       1      17      18      20      16      28      20      11       0
       0       0       0       0       0       0       0       0      45       0
       0
%FLAG ATOM_NAME                                                                 
%FORMAT(20a4)                                                                   
C1  C2  C3  C4  C5  C6  C7  C8  C9  C10 C11 C12 O1  N1  C13 C14 C15 C16 H1  H2  
H3  H4  H5  H6  H7  H8  H9  H10 H11 H12 H13 H14 H15 H16 H17 H18 H19 H20 H21 H22 
H23 H24 H25 H26 H27 
%FLAG CHARGE                                                                    
%FORMAT(5E16.8)                                                                 
 -1.69649613E+00 -1.41040602E+00 -9.14759460E-01 -3.01032396E+00 -3.35654766E+00
 -8.41870260E-01 -1.00587096E+00 -2.20854276E+00 -3.15245790E+00 -7.83558900E-01
 -4.48633026E+00  1.19775178E+01 -1.12814259E+01 -1.02391104E+01  1.60356240E+00
 -1.68920721E+00 -1.66916268E+00 -1.66916268E+00  6.20159536E-01  6.20159536E-01
  6.20159536E-01  7.23425310E-01  7.23425310E-01  8.69203710E-01  8.69203710E-01
  2.27778750E+00  2.24134290E+00  9.42092910E-01  9.42092910E-01  9.69426360E-01
  9.69426360E-01  2.40534360E+00  2.27778750E+00  2.75156730E+00  2.35067670E+00
  5.53046805E+00  1.11520476E+00  1.11520476E+00  9.96759810E-01  6.47492986E-01
  6.47492986E-01  6.47492986E-01  6.47492986E-01  6.47492986E-01  6.47492986E-01
%FLAG ATOMIC_NUMBER                                                             
%FORMAT(10I8)                                                                   
       6       6       6       6       6       6       6       6       6       6
       6       6       8       7       6       6       6       6       1       1
       1       1       1       1       1       1       1       1       1       1
       1       1       1       1       1       1       1       1       1       1
       1       1       1       1       1
%FLAG MASS                                                                      
%FORMAT(5E16.8)                                                                 
  1.20100000E+01  1.20100000E+01  1.20100000E+01  1.20100000E+01  1.20100000E+01
  1.20100000E+01  1.20100000E+01  1.20100000E+01  1.20100000E+01  1.20100000E+01
  1.20100000E+01  1.20100000E+01  1.60000000E+01  1.40100000E+01  1.20100000E+01
  1.20100000E+01  1.20100000E+01  1.20100000E+01  1.00800000E+00  1.00800000E+00
  1.00800000E+00  1.00800000E+00  1.00800000E+00  1.00800000E+00  1.00800000E+00
  1.00800000E+00  1.00800000E+00  1.00800000E+00  1.00800000E+00  1.00800000E+00
  1.00800000E+00  1.00800000E+00  1.00800000E+00  1.00800000E+00  1.00800000E+00
  1.00800000E+00  1.00800000E+00  1.00800000E+00  1.00800000E+00  1.00800000E+00
  1.00800000E+00  1.00800000E+00  1.00800000E+00  1.00800000E+00  1.00800000E+00
%FLAG ATOM_TYPE_INDEX                                                           
%FORMAT(10I8)                                                                   
       1       1       1       2       2       1       1       2       2       2
       2       2       3       4       1       1       1       1       5       5
       5       5       5       5       5       6       6       5       5       5
       5       6       6       6       6       7       8       8       5       5
       5       5       5       5       5
%FLAG NUMBER_EXCLUDED_ATOMS                                                     
%FORMAT(10I8)                                                                   
      10      11      12      11      11      10      10      10       9       8
       8       9       4       9      13      12      10       9       4       3
       2       3       2       2       1       1       2       3       2       2
       1       1       1       1       1       2       2       1       6       2
       1       1       2       1       1
%FLAG NONBONDED_PARM_INDEX                                                      
%FORMAT(10I8)                                                                   
       1       2       4       7      11      16      22      29       2       3
       5       8      12      17      23      30       4       5       6       9
      13      18      24      31       7       8       9      10      14      19
      25      32      11      12      13      14      15      20      26      33
      16      17      18      19      20      21      27      34      22      23
      24      25      26      27      28      35      29      30      31      32
      33      34      35      36
%FLAG RESIDUE_LABEL                                                             
%FORMAT(20a4)                                                                   
MOL 
%FLAG RESIDUE_POINTER                                                           
%FORMAT(10I8)                                                                   
       1
%FLAG BOND_FORCE_CONSTANT                                                       
%FORMAT(5E16.8)                                                                 
  2.32500000E+02  3.75900000E+02  2.55600000E+02  4.81800000E+02  3.92200000E+02
  4.60500000E+02  3.06100000E+02  3.91400000E+02  4.52200000E+02  2.80400000E+02
  3.91400000E+02  6.52600000E+02  3.56200000E+02  2.63800000E+02  5.27300000E+02
  3.75900000E+02
%FLAG BOND_EQUIL_VALUE                                                          
%FORMAT(5E16.8)                                                                 
  1.53800000E+00  1.09700000E+00  1.51000000E+00  1.33400000E+00  1.08800000E+00
  1.34600000E+00  1.45700000E+00  1.08800000E+00  1.35100000E+00  1.48200000E+00
  1.08800000E+00  1.21800000E+00  1.37900000E+00  1.46200000E+00  1.01300000E+00
  1.09700000E+00
%FLAG ANGLE_FORCE_CONSTANT                                                      
%FORMAT(5E16.8)                                                                 
  6.49000000E+01  4.68000000E+01  6.55000000E+01  6.61000000E+01  4.64000000E+01
  4.75000000E+01  5.04000000E+01  6.61000000E+01  6.75000000E+01  5.01000000E+01
  5.00000000E+01  6.71000000E+01  4.77000000E+01  6.59000000E+01  5.04000000E+01
  5.04000000E+01  8.63000000E+01  8.57000000E+01  4.70000000E+01  6.53000000E+01
  4.87000000E+01  1.13800000E+02  8.32000000E+01  6.15000000E+01  4.61000000E+01
  4.69000000E+01  3.90000000E+01  3.88000000E+01
%FLAG ANGLE_EQUIL_VALUE                                                         
%FORMAT(5E16.8)                                                                 
  1.94621748E+00  1.91637234E+00  1.94709015E+00  2.15775148E+00  2.01899774E+00
  1.92614619E+00  2.10190092E+00  2.14937390E+00  2.15129376E+00  2.09334880E+00
  2.10224999E+00  2.16839799E+00  2.03592745E+00  2.20627165E+00  2.06332913E+00
  2.06332913E+00  2.15024656E+00  2.01096923E+00  2.03261132E+00  2.10643878E+00
  2.05163542E+00  2.14762857E+00  1.94796281E+00  1.90031530E+00  2.05390434E+00
  1.91218355E+00  1.87762601E+00  1.89298492E+00
%FLAG DIHEDRAL_FORCE_CONSTANT                                                   
%FORMAT(5E16.8)                                                                 
  1.55555556E-01  8.00000000E-02  0.00000000E+00  4.00000000E-01  5.29000000E+00
  6.65000000E+00  1.47000000E+00  3.60000000E-01  1.00000000E+00  2.17500000E+00
  2.50000000E+00  1.02000000E+00  1.70000000E-01  1.00000000E-01  0.00000000E+00
  2.00000000E+00  1.00000000E-01  1.20000000E-01  1.10000000E+00  1.05000000E+01
%FLAG DIHEDRAL_PERIODICITY                                                      
%FORMAT(5E16.8)                                                                 
  3.00000000E+00  3.00000000E+00  2.00000000E+00  1.00000000E+00  2.00000000E+00
  2.00000000E+00  1.00000000E+00  3.00000000E+00  2.00000000E+00  2.00000000E+00
  2.00000000E+00  1.00000000E+00  3.00000000E+00  4.00000000E+00  2.00000000E+00
  1.00000000E+00  3.00000000E+00  3.00000000E+00  2.00000000E+00  2.00000000E+00
%FLAG DIHEDRAL_PHASE                                                            
%FORMAT(5E16.8)                                                                 
  0.00000000E+00  0.00000000E+00  0.00000000E+00  3.14159400E+00  3.14159400E+00
  3.14159400E+00  0.00000000E+00  3.14159400E+00  3.14159400E+00  3.14159400E+00
  3.14159400E+00  3.14159400E+00  0.00000000E+00  3.14159400E+00  3.14159400E+00
  0.00000000E+00  0.00000000E+00  0.00000000E+00  3.14159400E+00  3.14159400E+00
%FLAG SCEE_SCALE_FACTOR                                                         
%FORMAT(5E16.8)                                                                 
  1.20000000E+00  1.20000000E+00  1.20000000E+00  1.20000000E+00  1.20000000E+00
  1.20000000E+00  1.20000000E+00  1.20000000E+00  1.20000000E+00  1.20000000E+00
  1.20000000E+00  1.20000000E+00  1.20000000E+00  1.20000000E+00  1.20000000E+00
  1.20000000E+00  1.20000000E+00  1.20000000E+00  0.00000000E+00  0.00000000E+00
%FLAG SCNB_SCALE_FACTOR                                                         
%FORMAT(5E16.8)                                                                 
  2.00000000E+00  2.00000000E+00  2.00000000E+00  2.00000000E+00  2.00000000E+00
  2.00000000E+00  2.00000000E+00  2.00000000E+00  2.00000000E+00  2.00000000E+00
  2.00000000E+00  2.00000000E+00  2.00000000E+00  2.00000000E+00  2.00000000E+00
  2.00000000E+00  2.00000000E+00  2.00000000E+00  0.00000000E+00  0.00000000E+00
%FLAG SOLTY                                                                     
%FORMAT(5E16.8)                                                                 
  0.00000000E+00  0.00000000E+00  0.00000000E+00  0.00000000E+00  0.00000000E+00
  0.00000000E+00  0.00000000E+00  0.00000000E+00  0.00000000E+00  0.00000000E+00
  0.00000000E+00
%FLAG LENNARD_JONES_ACOEF                                                       
%FORMAT(5E16.8)                                                                 
  1.02073671E+06  8.43969952E+05  6.96551276E+05  6.30925504E+05  5.17507491E+05
  3.76435470E+05  8.48258258E+05  6.99381362E+05  5.17814271E+05  7.01825028E+05
  1.00235148E+05  8.12662403E+04  5.68021765E+04  8.07866982E+04  7.94617769E+03
  9.27554496E+04  7.52549148E+04  5.27277400E+04  7.48403283E+04  7.41026906E+03
  6.90855956E+03  2.23577481E+03  1.71458823E+03  9.87857350E+02  1.65195713E+03
  9.47421632E+01  9.04434904E+01  1.34728399E-01  6.97998263E+04  5.63013422E+04
  3.86646725E+04  5.58085097E+04  5.22955465E+03  4.88692384E+03  5.24570081E+01
  3.39005767E+03
%FLAG LENNARD_JONES_BCOEF                                                       
%FORMAT(5E16.8)                                                                 
  6.63431737E+02  5.90251928E+02  5.24668528E+02  5.62969425E+02  4.98871431E+02
  4.69350655E+02  6.17825399E+02  5.48900066E+02  5.21008860E+02  5.74088001E+02
  1.37787728E+02  1.21392023E+02  1.11953944E+02  1.26366740E+02  2.57122925E+01
  1.24325688E+02  1.09570372E+02  1.01173582E+02  1.14083104E+02  2.32899892E+01
  2.10929191E+01  1.71355763E+01  1.46824710E+01  1.22938581E+01  1.50468782E+01
  2.33785449E+00  2.14252117E+00  7.34107347E-02  1.14981426E+02  1.01040256E+02
  9.23664132E+01  1.05029928E+02  2.08590256E+01  1.89134207E+01  1.73959275E+00
  1.67944276E+01
%FLAG BONDS_INC_HYDROGEN                                                        
%FORMAT(10I8)                                                                   
       0      54       2       0      57       2       0      60       2       3
      63       2       3      66       2       6      69       2       6      72
       2       9      75       5      12      78       5      15      81       2
      15      84       2      18      87       2      18      90       2      21
      93       5      24      96       8      27      99       8      30     102
      11      39     105      15      42     108      16      42     111      16
      45     114       2      48     117       2      48     120       2      48
     123       2      51     126       2      51     129       2      51     132
       2
%FLAG BONDS_WITHOUT_HYDROGEN                                                    
%FORMAT(10I8)                                                                   
       0       3       1       3       6       1       6       9       3       9
      12       4      12      15       3      15      18       1      18      21
       3      21      24       6      24      27       7      27      30       9
      30      33      10      33      36      12      33      39      13      39
      42      14      42      45       1      45      48       1      45      51
       1
%FLAG ANGLES_INC_HYDROGEN                                                       
%FORMAT(10I8)                                                                   
       0       3      63       2       0       3      66       2       3       0
      54       2       3       0      57       2       3       0      60       2
       3       6      69       2       3       6      72       2       6       3
      63       2       6       3      66       2       6       9      75       5
       9       6      69       6       9       6      72       6       9      12
      78       7      12       9      75       7      12      15      81       6
      12      15      84       6      15      12      78       5      15      18
      87       2      15      18      90       2      18      15      81       2
      18      15      84       2      18      21      93       5      21      18
      87       6      21      18      90       6      21      24      96      10
      24      21      93      11      24      27      99      13      27      24
      96      13      27      30     102      15      30      27      99      16
      33      30     102      19      33      39     105      21      39      42
     108      24      39      42     111      24      42      39     105      25
      42      45     114       2      45      42     108      26      45      42
     111      26      45      48     117       2      45      48     120       2
      45      48     123       2      45      51     126       2      45      51
     129       2      45      51     132       2      48      45     114       2
      51      45     114       2      54       0      57      27      54       0
      60      27      57       0      60      27      63       3      66      27
      69       6      72      27      81      15      84      27      87      18
      90      27     108      42     111      28     117      48     120      27
     117      48     123      27     120      48     123      27     126      51
     129      27     126      51     132      27     129      51     132      27
%FLAG ANGLES_WITHOUT_HYDROGEN                                                   
%FORMAT(10I8)                                                                   
       0       3       6       1       3       6       9       3       6       9
      12       4       9      12      15       4      12      15      18       3
      15      18      21       3      18      21      24       8      21      24
      27       9      24      27      30      12      27      30      33      14
      30      33      36      17      30      33      39      18      33      39
      42      20      36      33      39      22      39      42      45      23
      42      45      48       1      42      45      51       1      48      45
      51       1
%FLAG DIHEDRALS_INC_HYDROGEN                                                    
%FORMAT(10I8)                                                                   
       0       3       6      69       2       0       3       6      72       2
       3       6       9      75       3      54       0       3       6       2
      57       0       3       6       2      60       0       3       6       2
       6       9      12      78       6       9       6       3      63       1
       9       6       3      66       1       9      12      15      81       7
       9      12     -15      81       8       9      12      15      84       7
       9      12     -15      84       8      12       9       6      69       7
      12       9      -6      69       8      12       9       6      72       7
      12       9      -6      72       8      12      15      18      87       1
      12      15      18      90       1      15      12       9      75       6
      15      18      21      93       3      18      15      12      78       3
      18      21      24      96       6      21      18      15      81       1
      21      18      15      84       1      21      24      27      99       9
      24      21      18      87       3      24      21      18      90       3
      24      27      30     102       6      27      24      21      93       6
      30      27      24      96       9      30      33      39     105      11
      33      30      27      99       6      33      39      42     108      15
      33      39      42     111      15      36      33      30     102      10
      36      33      39     105      16      36      33     -39     105      11
      39      33      30     102      10      39      42      45     114       1
      42      45      48     117       2      42      45      48     120       2
      42      45      48     123       2      42      45      51     126       2
      42      45      51     129       2      42      45      51     132       2
      45      42      39     105       3      48      45      42     108       1
      48      45      42     111       1      48      45      51     126       2
      48      45      51     129       2      48      45      51     132       2
      51      45      42     108       1      51      45      42     111       1
      51      45      48     117       2      51      45      48     120       2
      51      45      48     123       2      54       0       3      63      18
      54       0       3      66      18      57       0       3      63      18
      57       0       3      66      18      60       0       3      63      18
      60       0       3      66      18      63       3       6      69      18
      63       3       6      72      18      66       3       6      69      18
      66       3       6      72      18      69       6       9      75       3
      72       6       9      75       3      75       9      12      78       6
      78      12      15      81       3      78      12      15      84       3
      81      15      18      87      18      81      15      18      90      18
      84      15      18      87      18      84      15      18      90      18
      87      18      21      93       3      90      18      21      93       3
      93      21      24      96       6      96      24      27      99       9
      99      27      30     102       6     105      39      42     108       3
     105      39      42     111       3     108      42      45     114       1
     111      42      45     114       1     114      45      48     117      18
     114      45      48     120      18     114      45      48     123      18
     114      45      51     126      18     114      45      51     129      18
     114      45      51     132      18      12       6      -9     -75      19
       9      15     -12     -78      19      18      24     -21     -93      19
      21      27     -24     -96      19      24      30     -27     -99      19
      33      27     -30    -102      19      33      42     -39    -105      19
%FLAG DIHEDRALS_WITHOUT_HYDROGEN                                                
%FORMAT(10I8)                                                                   
       0       3       6       9       1       3       6       9      12       3
       6       9      12      15       4       6       9     -12      15       5
       9      12      15      18       3      12      15      18      21       1
      15      18      21      24       3      18      21      24      27       6
      21      24      27      30       9      24      27      30      33       6
      27      30      33      36      10      27      30      33      39      10
      30      33      39      42      11      33      39      42      45      12
      33      39     -42      45      13      33      39     -42      45      14
      36      33      39      42      11      39      42      45      48      17
      39      42      45      51      17      30      39     -33     -36      20
%FLAG EXCLUDED_ATOMS_LIST                                                       
%FORMAT(10I8)                                                                   
       2       3       4      19      20      21      22      23      24      25
       3       4       5      19      20      21      22      23      24      25
      26       4       5       6      19      20      21      22      23      24
      25      26      27       5       6       7      22      23      24      25
      26      27      28      29       6       7       8      24      25      26
      27      28      29      30      31       7       8       9      26      27
      28      29      30      31      32       8       9      10      27      28
      29      30      31      32      33       9      10      11      28      29
      30      31      32      33      34      10      11      12      30      31
      32      33      34      35      11      12      13      14      32      33
      34      35      12      13      14      15      33      34      35      36
      13      14      15      16      34      35      36      37      38      14
      15      35      36      15      16      17      18      35      36      37
      38      39      16      17      18      36      37      38      39      40
      41      42      43      44      45      17      18      36      37      38
      39      40      41      42      43      44      45      18      37      38
      39      40      41      42      43      44      45      37      38      39
      40      41      42      43      44      45      20      21      22      23
      21      22      23      22      23      23      24      25      24      25
      25      26      26      27      28      29      29      30      31      30
      31      31      32      32      33      34      35       0      37      38
      38      39      39      40      41      42      43      44      45      41
      42      42       0      44      45      45       0
%FLAG HBOND_ACOEF                                                               
%FORMAT(5E16.8)                                                                 

%FLAG HBOND_BCOEF                                                               
%FORMAT(5E16.8)                                                                 

%FLAG HBCUT                                                                     
%FORMAT(5E16.8)                                                                 

%FLAG AMBER_ATOM_TYPE                                                           
%FORMAT(20a4)                                                                   
c3  c3  c3  c2  c2  c3  c3  c2  ce  ce  cf  c   o   ns  c3  c3  c3  c3  hc  hc  
hc  hc  hc  hc  hc  ha  ha  hc  hc  hc  hc  ha  ha  ha  ha  hn  h1  h1  hc  hc  
hc  hc  hc  hc  hc  
%FLAG TREE_CHAIN_CLASSIFICATION                                                 
%FORMAT(20a4)                                                                   
BLA BLA BLA BLA BLA BLA BLA BLA BLA BLA BLA BLA BLA BLA BLA BLA BLA BLA BLA BLA 
BLA BLA BLA BLA BLA BLA BLA BLA BLA BLA BLA BLA BLA BLA BLA BLA BLA BLA BLA BLA 
BLA BLA BLA BLA BLA 
%FLAG JOIN_ARRAY                                                                
%FORMAT(10I8)                                                                   
       0       0       0       0       0       0       0       0       0       0
       0       0       0       0       0       0       0       0       0       0
       0       0       0       0       0       0       0       0       0       0
       0       0       0       0       0       0       0       0       0       0
       0       0       0       0       0
%FLAG IROTAT                                                                    
%FORMAT(10I8)                                                                   
       0       0       0       0       0       0       0       0       0       0
       0       0       0       0       0       0       0       0       0       0
       0       0       0       0       0       0       0       0       0       0
       0       0       0       0       0       0       0       0       0       0
       0       0       0       0       0
%FLAG RADIUS_SET                                                                
%FORMAT(1a80)                                                                   
modified Bondi radii (mbondi)                                                   
%FLAG RADII                                                                     
%FORMAT(5E16.8)                                                                 
  1.70000000E+00  1.70000000E+00  1.70000000E+00  1.70000000E+00  1.70000000E+00
  1.70000000E+00  1.70000000E+00  1.70000000E+00  1.70000000E+00  1.70000000E+00
  1.70000000E+00  1.70000000E+00  1.50000000E+00  1.55000000E+00  1.70000000E+00
  1.70000000E+00  1.70000000E+00  1.70000000E+00  1.30000000E+00  1.30000000E+00
  1.30000000E+00  1.30000000E+00  1.30000000E+00  1.30000000E+00  1.30000000E+00
  1.30000000E+00  1.30000000E+00  1.30000000E+00  1.30000000E+00  1.30000000E+00
  1.30000000E+00  1.30000000E+00  1.30000000E+00  1.30000000E+00  1.30000000E+00
  1.30000000E+00  1.30000000E+00  1.30000000E+00  1.30000000E+00  1.30000000E+00
  1.30000000E+00  1.30000000E+00  1.30000000E+00  1.30000000E+00  1.30000000E+00
%FLAG SCREEN                                                                    
%FORMAT(5E16.8)                                                                 
  7.20000000E-01  7.20000000E-01  7.20000000E-01  7.20000000E-01  7.20000000E-01
  7.20000000E-01  7.20000000E-01  7.20000000E-01  7.20000000E-01  7.20000000E-01
  7.20000000E-01  7.20000000E-01  8.50000000E-01  7.90000000E-01  7.20000000E-01
  7.20000000E-01  7.20000000E-01  7.20000000E-01  8.50000000E-01  8.50000000E-01
  8.50000000E-01  8.50000000E-01  8.50000000E-01  8.50000000E-01  8.50000000E-01
  8.50000000E-01  8.50000000E-01  8.50000000E-01  8.50000000E-01  8.50000000E-01
  8.50000000E-01  8.50000000E-01  8.50000000E-01  8.50000000E-01  8.50000000E-01
  8.50000000E-01  8.50000000E-01  8.50000000E-01  8.50000000E-01  8.50000000E-01
  8.50000000E-01  8.50000000E-01  8.50000000E-01  8.50000000E-01  8.50000000E-01
%FLAG IPOL                                                                      
%FORMAT(1I8)                                                                    
       0
