MOL
    45
   1.4360000  -2.1400000   2.5450000   1.0740000  -3.5850000   2.8560000
  -0.3950000  -3.7710000   3.2480000  -0.7380000  -3.1250000   4.5620000
  -1.7220000  -2.2480000   4.8190000  -2.7400000  -1.6910000   3.8580000
  -2.7110000  -0.1590000   3.7650000  -1.4610000   0.3680000   3.1150000
  -1.4400000   1.0100000   1.9370000  -0.2180000   1.4980000   1.3390000
  -0.1850000   2.1330000   0.1590000   1.1130000   2.5990000  -0.3930000
   2.1770000   2.4360000   0.1880000   0.9780000   3.2190000  -1.6120000
   2.1160000   3.7500000  -2.3370000   2.6070000   2.8330000  -3.4700000
   1.5230000   2.5960000  -4.5230000   3.1460000   1.5020000  -2.9480000
   1.3400000  -1.5050000   3.4310000   0.7950000  -1.7360000   1.7560000
   2.4740000  -2.0780000   2.2030000   1.2770000  -4.1940000   1.9660000
   1.7290000  -3.9610000   3.6510000  -1.0300000  -3.4140000   2.4330000
  -0.5910000  -4.8460000   3.3460000  -0.1100000  -3.4280000   5.3990000
  -1.8230000  -1.8970000   5.8460000  -3.7310000  -1.9930000   4.2210000
  -2.6410000  -2.1190000   2.8560000  -2.7980000   0.2830000   4.7660000
  -3.5950000   0.1710000   3.2050000  -0.5350000   0.2070000   3.6630000
  -2.3690000   1.1710000   1.3940000   0.7090000   1.3280000   1.8870000
  -1.0840000   2.3160000  -0.4140000   0.0640000   3.3200000  -2.0290000
   2.9360000   3.9530000  -1.6380000   1.7980000   4.7130000  -2.7520000
   3.4380000   3.3520000  -3.9650000   1.9250000   2.0280000  -5.3680000
   0.6780000   2.0330000  -4.1140000   1.1430000   3.5470000  -4.9110000
   3.5900000   0.9210000  -3.7640000   3.9240000   1.6650000  -2.1940000
   2.3560000   0.8910000  -2.4990000
