%VERSION  VERSION_STAMP = V0001.000  DATE = 07/11/26  13:22:29                  
%FLAG TITLE                                                                     
%FORMAT(20a4)                                                                   
MOL                                                                             
%FLAG POINTERS                                                                  
%FORMAT(10I8)                                                                   
      83      11      44      41     100      55     158      87       0       0
     454       1      41      55      87      20      37      29      14       0
       0       0       0       0       0       0       0       0      83       0
       0
%FLAG ATOM_NAME                                                                 
%FORMAT(20a4)                                                                   
C1  C2  C3  C4  C5  O1  C6  C7  C8  C9  N1  S1  C10 O2  O3  C11 C12 C13 C14 O4  
C15 C16 C17 C18 O5  C19 C20 C21 N2  C22 C23 C24 C25 C26 C27 C28 C29 C30 C31 H1  
H2  H3  H4  H5  H6  H7  H8  H9  H10 H11 H12 H13 H14 H15 H16 H17 H18 H19 H20 H21 
H22 H23 H24 H25 H26 H27 H28 H29 H30 H31 H32 H33 H34 H35 H36 H37 H38 H39 H40 H41 
H42 H43 H44 
%FLAG CHARGE                                                                    
%FORMAT(5E16.8)                                                                 
 -1.66005153E+00 -1.55618442E+00 -1.37396142E+00 -6.04980360E-01  2.45818827E+00
 -3.50232606E+00  3.84490530E-01 -1.47600630E+00 -2.93379030E+00  3.09050208E+00
 -1.42042829E+01  2.68214034E+01 -7.05749679E+00 -1.18955174E+01 -1.18955174E+01
 -2.76978960E+00 -5.97691440E-01 -4.21664022E+00  1.13142261E+01 -1.01334210E+01
 -3.85583868E+00 -9.47559600E-01 -3.48957045E+00  2.78983413E+00 -6.02975907E+00
  2.33974332E+00 -2.28507642E+00  3.20348034E+00 -1.36958807E+01  3.13970229E+00
 -1.54707327E+00 -1.46507292E+00 -1.70560728E+00  3.13970229E+00 -1.54707327E+00
 -1.46507292E+00 -1.70560728E+00 -3.48957045E+00 -9.47559600E-01  6.14091510E-01
  6.14091510E-01  6.14091510E-01  7.68981060E-01  7.68981060E-01  1.08787131E+00
  1.08787131E+00  1.37031696E+00  1.37031696E+00  2.84267880E+00  2.55112200E+00
  8.30572434E+00  2.35127804E+00  2.35127804E+00  2.35127804E+00  2.84267880E+00
  2.72423385E+00  2.82445650E+00  1.06053786E+00  1.06053786E+00  1.32476121E+00
  1.32476121E+00  6.23202660E-01  6.23202660E-01  5.82202485E-01  5.82202485E-01
  8.87426010E-01  8.87426010E-01  7.23425310E-01  7.23425310E-01  5.98912334E-01
  5.98912334E-01  5.98912334E-01  5.82202485E-01  5.82202485E-01  8.87426010E-01
  8.87426010E-01  7.23425310E-01  7.23425310E-01  5.98912334E-01  5.98912334E-01
  5.98912334E-01  2.82445650E+00  2.72423385E+00
%FLAG ATOMIC_NUMBER                                                             
%FORMAT(10I8)                                                                   
       6       6       6       6       6       8       6       6       6       6
       7      16       6       8       8       6       6       6       6       8
       6       6       6       6       8       6       6       6       7       6
       6       6       6       6       6       6       6       6       6       1
       1       1       1       1       1       1       1       1       1       1
       1       1       1       1       1       1       1       1       1       1
       1       1       1       1       1       1       1       1       1       1
       1       1       1       1       1       1       1       1       1       1
       1       1       1
%FLAG MASS                                                                      
%FORMAT(5E16.8)                                                                 
  1.20100000E+01  1.20100000E+01  1.20100000E+01  1.20100000E+01  1.20100000E+01
  1.60000000E+01  1.20100000E+01  1.20100000E+01  1.20100000E+01  1.20100000E+01
  1.40100000E+01  3.20600000E+01  1.20100000E+01  1.60000000E+01  1.60000000E+01
  1.20100000E+01  1.20100000E+01  1.20100000E+01  1.20100000E+01  1.60000000E+01
  1.20100000E+01  1.20100000E+01  1.20100000E+01  1.20100000E+01  1.60000000E+01
  1.20100000E+01  1.20100000E+01  1.20100000E+01  1.40100000E+01  1.20100000E+01
  1.20100000E+01  1.20100000E+01  1.20100000E+01  1.20100000E+01  1.20100000E+01
  1.20100000E+01  1.20100000E+01  1.20100000E+01  1.20100000E+01  1.00800000E+00
  1.00800000E+00  1.00800000E+00  1.00800000E+00  1.00800000E+00  1.00800000E+00
  1.00800000E+00  1.00800000E+00  1.00800000E+00  1.00800000E+00  1.00800000E+00
  1.00800000E+00  1.00800000E+00  1.00800000E+00  1.00800000E+00  1.00800000E+00
  1.00800000E+00  1.00800000E+00  1.00800000E+00  1.00800000E+00  1.00800000E+00
  1.00800000E+00  1.00800000E+00  1.00800000E+00  1.00800000E+00  1.00800000E+00
  1.00800000E+00  1.00800000E+00  1.00800000E+00  1.00800000E+00  1.00800000E+00
  1.00800000E+00  1.00800000E+00  1.00800000E+00  1.00800000E+00  1.00800000E+00
  1.00800000E+00  1.00800000E+00  1.00800000E+00  1.00800000E+00  1.00800000E+00
  1.00800000E+00  1.00800000E+00  1.00800000E+00
%FLAG ATOM_TYPE_INDEX                                                           
%FORMAT(10I8)                                                                   
       1       1       1       1       2       3       2       2       2       2
       4       5       1       6       6       2       2       2       2       6
       2       2       2       2       3       1       1       1       7       1
       1       1       1       1       1       1       1       2       2       8
       8       8       8       8       8       8       8       8       9       9
      10      11      11      11       9       9       9      11      11       8
       8      11      11      11      11       8       8       8       8       8
       8       8      11      11       8       8       8       8       8       8
       8       9       9
%FLAG NUMBER_EXCLUDED_ATOMS                                                     
%FORMAT(10I8)                                                                   
      10      12      13      12      13      10      10       8       9      12
      12       8       6       5       4       6       6       8       8       3
       9       8       8      11      11      10      10      15      18      15
      12      10       7      13      11      10       7       4       3       4
       3       2       3       2       3       2       1       1       1       1
       1       2       1       1       1       1       1       3       2       3
       2       1       1       3       2       3       2       4       3       2
       1       1       3       2       3       2       4       3       2       1
       1       1       1
%FLAG NONBONDED_PARM_INDEX                                                      
%FORMAT(10I8)                                                                   
       1       2       4       7      11      16      22      29      37      46
      56       2       3       5       8      12      17      23      30      38
      47      57       4       5       6       9      13      18      24      31
      39      48      58       7       8       9      10      14      19      25
      32      40      49      59      11      12      13      14      15      20
      26      33      41      50      60      16      17      18      19      20
      21      27      34      42      51      61      22      23      24      25
      26      27      28      35      43      52      62      29      30      31
      32      33      34      35      36      44      53      63      37      38
      39      40      41      42      43      44      45      54      64      46
      47      48      49      50      51      52      53      54      55      65
      56      57      58      59      60      61      62      63      64      65
      66
%FLAG RESIDUE_LABEL                                                             
%FORMAT(20a4)                                                                   
MOL 
%FLAG RESIDUE_POINTER                                                           
%FORMAT(10I8)                                                                   
       1
%FLAG BOND_FORCE_CONSTANT                                                       
%FORMAT(5E16.8)                                                                 
  2.32500000E+02  3.75900000E+02  2.62600000E+02  3.67900000E+02  4.16100000E+02
  3.57500000E+02  3.78600000E+02  3.95700000E+02  3.47100000E+02  3.01900000E+02
  5.29500000E+02  2.00100000E+02  6.83000000E+02  3.75900000E+02  3.08200000E+02
  2.95400000E+02  6.52600000E+02  2.72700000E+02  2.84800000E+02  2.61200000E+02
%FLAG BOND_EQUIL_VALUE                                                          
%FORMAT(5E16.8)                                                                 
  1.53800000E+00  1.09700000E+00  1.50200000E+00  1.36200000E+00  1.37300000E+00
  1.37000000E+00  1.39800000E+00  1.08600000E+00  1.38600000E+00  1.69800000E+00
  1.01200000E+00  1.80800000E+00  1.45300000E+00  1.09700000E+00  1.45600000E+00
  1.46800000E+00  1.21800000E+00  1.49100000E+00  1.43200000E+00  1.46500000E+00
%FLAG ANGLE_FORCE_CONSTANT                                                      
%FORMAT(5E16.8)                                                                 
  6.49000000E+01  4.68000000E+01  6.55000000E+01  8.49000000E+01  6.68000000E+01
  4.77000000E+01  6.93000000E+01  6.98000000E+01  6.72000000E+01  8.80000000E+01
  8.73000000E+01  6.88000000E+01  4.87000000E+01  6.71000000E+01  8.62000000E+01
  6.32000000E+01  4.88000000E+01  9.09000000E+01  1.23700000E+02  4.43000000E+01
  4.36000000E+01  9.37000000E+01  1.28200000E+02  6.50000000E+01  8.67000000E+01
  6.61000000E+01  6.64000000E+01  8.62000000E+01  6.61000000E+01  8.53000000E+01
  6.24000000E+01  4.69000000E+01  8.33000000E+01  6.57000000E+01  6.12000000E+01
  3.90000000E+01  3.88000000E+01
%FLAG ANGLE_EQUIL_VALUE                                                         
%FORMAT(5E16.8)                                                                 
  1.94621748E+00  1.91637234E+00  1.95354787E+00  2.03854544E+00  2.08479669E+00
  1.92841512E+00  1.97361916E+00  1.98112408E+00  2.11795796E+00  2.09963199E+00
  2.08043336E+00  2.09474507E+00  2.09230160E+00  2.10818411E+00  2.11097664E+00
  2.14413791E+00  2.02580453E+00  1.82072826E+00  1.87116829E+00  1.91846674E+00
  1.87012110E+00  1.89560291E+00  2.09526867E+00  2.14588324E+00  2.16298747E+00
  2.02458280E+00  2.10015559E+00  2.13977458E+00  2.05879127E+00  1.88443280E+00
  1.91602327E+00  1.91218355E+00  1.93801443E+00  1.96087826E+00  1.91776860E+00
  1.87762601E+00  1.89298492E+00
%FLAG DIHEDRAL_FORCE_CONSTANT                                                   
%FORMAT(5E16.8)                                                                 
  1.10000000E-01  2.90000000E-01  1.30000000E-01  8.00000000E-02  1.55555556E-01
  0.00000000E+00  1.57000000E-01  1.05000000E+00  4.00000000E+00  9.00000000E-01
  5.05000000E-01  2.87500000E+00  3.62500000E+00  1.93000000E+00  1.00000000E-01
  1.44444444E-01  1.00000000E+00  5.22500000E-01  1.61000000E+00  3.83333333E-01
  2.50000000E-01  2.10000000E-01  2.80000000E-01  5.80000000E-01  2.25000000E-01
  1.00000000E-01  1.20000000E-01  1.10000000E+00  1.05000000E+01
%FLAG DIHEDRAL_PERIODICITY                                                      
%FORMAT(5E16.8)                                                                 
  1.00000000E+00  2.00000000E+00  3.00000000E+00  3.00000000E+00  3.00000000E+00
  3.00000000E+00  3.00000000E+00  2.00000000E+00  2.00000000E+00  2.00000000E+00
  2.00000000E+00  2.00000000E+00  2.00000000E+00  3.00000000E+00  2.00000000E+00
  3.00000000E+00  2.00000000E+00  2.00000000E+00  2.00000000E+00  3.00000000E+00
  1.00000000E+00  3.00000000E+00  2.00000000E+00  3.00000000E+00  3.00000000E+00
  3.00000000E+00  3.00000000E+00  2.00000000E+00  2.00000000E+00
%FLAG DIHEDRAL_PHASE                                                            
%FORMAT(5E16.8)                                                                 
  0.00000000E+00  3.14159400E+00  0.00000000E+00  0.00000000E+00  0.00000000E+00
  0.00000000E+00  3.14159400E+00  3.14159400E+00  3.14159400E+00  3.14159400E+00
  3.14159400E+00  3.14159400E+00  3.14159400E+00  0.00000000E+00  3.14159400E+00
  0.00000000E+00  3.14159400E+00  3.14159400E+00  3.14159400E+00  0.00000000E+00
  0.00000000E+00  0.00000000E+00  3.14159400E+00  0.00000000E+00  0.00000000E+00
  0.00000000E+00  0.00000000E+00  3.14159400E+00  3.14159400E+00
%FLAG SCEE_SCALE_FACTOR                                                         
%FORMAT(5E16.8)                                                                 
  1.20000000E+00  1.20000000E+00  1.20000000E+00  1.20000000E+00  1.20000000E+00
  1.20000000E+00  1.20000000E+00  1.20000000E+00  1.20000000E+00  1.20000000E+00
  1.20000000E+00  1.20000000E+00  1.20000000E+00  1.20000000E+00  1.20000000E+00
  1.20000000E+00  1.20000000E+00  1.20000000E+00  1.20000000E+00  1.20000000E+00
  1.20000000E+00  1.20000000E+00  1.20000000E+00  1.20000000E+00  1.20000000E+00
  1.20000000E+00  1.20000000E+00  0.00000000E+00  0.00000000E+00
%FLAG SCNB_SCALE_FACTOR                                                         
%FORMAT(5E16.8)                                                                 
  2.00000000E+00  2.00000000E+00  2.00000000E+00  2.00000000E+00  2.00000000E+00
  2.00000000E+00  2.00000000E+00  2.00000000E+00  2.00000000E+00  2.00000000E+00
  2.00000000E+00  2.00000000E+00  2.00000000E+00  2.00000000E+00  2.00000000E+00
  2.00000000E+00  2.00000000E+00  2.00000000E+00  2.00000000E+00  2.00000000E+00
  2.00000000E+00  2.00000000E+00  2.00000000E+00  2.00000000E+00  2.00000000E+00
  2.00000000E+00  2.00000000E+00  0.00000000E+00  0.00000000E+00
%FLAG SOLTY                                                                     
%FORMAT(5E16.8)                                                                 
  0.00000000E+00  0.00000000E+00  0.00000000E+00  0.00000000E+00  0.00000000E+00
  0.00000000E+00  0.00000000E+00  0.00000000E+00  0.00000000E+00  0.00000000E+00
  0.00000000E+00  0.00000000E+00  0.00000000E+00  0.00000000E+00
%FLAG LENNARD_JONES_ACOEF                                                       
%FORMAT(5E16.8)                                                                 
  1.02073671E+06  8.43969952E+05  6.96551276E+05  5.42502534E+05  4.46121722E+05
  2.83662575E+05  9.89136215E+05  8.15700858E+05  5.21588833E+05  9.54886922E+05
  2.09089895E+06  1.73376823E+06  1.12086734E+06  2.03458349E+06  4.26366419E+06
  6.30925504E+05  5.17507491E+05  3.27367585E+05  6.04358274E+05  1.30884564E+06
  3.76435470E+05  8.59569453E+05  7.10207765E+05  4.55871651E+05  8.32102309E+05
  1.76274168E+06  5.29641935E+05  7.23647490E+05  1.00235148E+05  8.12662403E+04
  5.02224902E+04  9.44129241E+04  2.11783234E+05  5.68021765E+04  8.37616145E+04
  7.94617769E+03  9.27554496E+04  7.52549148E+04  4.65732396E+04  8.74566229E+04
  1.95762765E+05  5.27277400E+04  7.75325560E+04  7.41026906E+03  6.90855956E+03
  2.23577481E+03  1.71458823E+03  9.46795083E+02  1.94284817E+03  5.15374979E+03
  9.87857350E+02  1.82809059E+03  9.47421632E+01  9.04434904E+01  1.34728399E-01
  6.97998263E+04  5.63013422E+04  3.44374471E+04  6.52595638E+04  1.48672098E+05
  3.86646725E+04  5.82112737E+04  5.22955465E+03  4.88692384E+03  5.24570081E+01
  3.39005767E+03
%FLAG LENNARD_JONES_BCOEF                                                       
%FORMAT(5E16.8)                                                                 
  6.63431737E+02  5.90251928E+02  5.24668528E+02  4.38146883E+02  3.88758656E+02
  2.87011518E+02  7.14570130E+02  6.34916791E+02  4.70067704E+02  7.68192761E+02
  1.20800124E+03  1.07629402E+03  8.01230425E+02  1.30381522E+03  2.19459223E+03
  5.62969425E+02  4.98871431E+02  3.67361018E+02  6.02865504E+02  1.03157656E+03
  4.69350655E+02  5.75038595E+02  5.11427129E+02  3.79365004E+02  6.19045117E+02
  1.04764062E+03  4.87196412E+02  4.98353106E+02  1.37787728E+02  1.21392023E+02
  8.83545880E+01  1.46316625E+02  2.54804909E+02  1.11953944E+02  1.18970742E+02
  2.57122925E+01  1.24325688E+02  1.09570372E+02  7.98066064E+01  1.32088478E+02
  2.29782888E+02  1.01173582E+02  1.07361937E+02  2.32899892E+01  2.10929191E+01
  1.71355763E+01  1.46824710E+01  1.01016461E+01  1.74775900E+01  3.30984635E+01
  1.22938581E+01  1.46352678E+01  2.33785449E+00  2.14252117E+00  7.34107347E-02
  1.14981426E+02  1.01040256E+02  7.31636661E+01  1.21646616E+02  2.13489607E+02
  9.23664132E+01  9.91793374E+01  2.08590256E+01  1.89134207E+01  1.73959275E+00
  1.67944276E+01
%FLAG BONDS_INC_HYDROGEN                                                        
%FORMAT(10I8)                                                                   
       0     117       2       0     120       2       0     123       2       3
     126       2       3     129       2       6     132       2       6     135
       2       9     138       2       9     141       2      21     144       8
      24     147       8      30     150      11      36     153      14      36
     156      14      36     159      14      45     162       8      63     165
       8      66     168       8      75     171      14      75     174      14
      78     177       2      78     180       2      81     183      14      81
     186      14      87     189      14      87     192      14      90     195
       2      90     198       2      93     201       2      93     204       2
      96     207       2      96     210       2      96     213       2      99
     216      14      99     219      14     102     222       2     102     225
       2     105     228       2     105     231       2     108     234       2
     108     237       2     108     240       2     111     243       8     114
     246       8
%FLAG BONDS_WITHOUT_HYDROGEN                                                    
%FORMAT(10I8)                                                                   
       0       3       1       3       6       1       6       9       1       9
      12       3      12      15       4      12      51       5      15      18
       6      18      21       7      18      48       7      21      24       7
      24      27       7      27      30       9      27      45       7      30
      33      10      33      36      12      33      39      13      33      42
      13      45      48       7      48      51      15      51      54      16
      54      57      17      54      60      18      60      63       7      60
     114       7      63      66       7      66      69       7      69      72
       6      69     111       7      72      75      19      75      78       1
      78      81       1      81      84      20      84      87      20      84
      99      20      87      90       1      90      93       1      93      96
       1      99     102       1     102     105       1     105     108       1
     111     114       7
%FLAG ANGLES_INC_HYDROGEN                                                       
%FORMAT(10I8)                                                                   
       0       3     126       2       0       3     129       2       3       0
     117       2       3       0     120       2       3       0     123       2
       3       6     132       2       3       6     135       2       6       3
     126       2       6       3     129       2       6       9     138       2
       6       9     141       2       9       6     132       2       9       6
     135       2      12       9     138       6      12       9     141       6
      18      21     144      13      21      24     147      13      24      21
     144      13      27      24     147      13      27      30     150      17
      27      45     162      13      33      30     150      20      33      36
     153      21      33      36     156      21      33      36     159      21
      48      45     162      13      60      63     165      13      60     114
     246      13      63      66     168      13      66      63     165      13
      69      66     168      13      69     111     243      13      72      75
     171      31      72      75     174      31      75      78     177       2
      75      78     180       2      78      75     171      32      78      75
     174      32      78      81     183      32      78      81     186      32
      81      78     177       2      81      78     180       2      84      81
     183      35      84      81     186      35      84      87     189      35
      84      87     192      35      84      99     216      35      84      99
     219      35      87      90     195       2      87      90     198       2
      90      87     189      32      90      87     192      32      90      93
     201       2      90      93     204       2      93      90     195       2
      93      90     198       2      93      96     207       2      93      96
     210       2      93      96     213       2      96      93     201       2
      96      93     204       2      99     102     222       2      99     102
     225       2     102      99     216      32     102      99     219      32
     102     105     228       2     102     105     231       2     105     102
     222       2     105     102     225       2     105     108     234       2
     105     108     237       2     105     108     240       2     108     105
     228       2     108     105     231       2     111     114     246      13
     114     111     243      13     117       0     120      36     117       0
     123      36     120       0     123      36     126       3     129      36
     132       6     135      36     138       9     141      36     153      36
     156      37     153      36     159      37     156      36     159      37
     171      75     174      37     177      78     180      36     183      81
     186      37     189      87     192      37     195      90     198      36
     201      93     204      36     207      96     210      36     207      96
     213      36     210      96     213      36     216      99     219      37
     222     102     225      36     228     105     231      36     234     108
     237      36     234     108     240      36     237     108     240      36
%FLAG ANGLES_WITHOUT_HYDROGEN                                                   
%FORMAT(10I8)                                                                   
       0       3       6       1       3       6       9       1       6       9
      12       3       9      12      15       4       9      12      51       5
      12      15      18       7      12      51      48       8      12      51
      54       9      15      12      51      10      15      18      21      11
      15      18      48      11      18      21      24      12      18      48
      45      12      18      48      51      14      21      18      48      12
      21      24      27      12      24      27      30      15      24      27
      45      12      27      30      33      16      27      45      48      12
      30      27      45      15      30      33      36      18      30      33
      39      19      30      33      42      19      36      33      39      22
      36      33      42      22      39      33      42      23      45      48
      51      14      48      51      54      24      51      54      57      25
      51      54      60      26      54      60      63      27      54      60
     114      27      57      54      60      28      60      63      66      12
      60     114     111      12      63      60     114      12      63      66
      69      12      66      69      72      11      66      69     111      12
      69      72      75      29      69     111     114      12      72      69
     111      11      72      75      78      30      75      78      81       1
      78      81      84      33      81      84      87      34      81      84
      99      34      84      87      90      33      84      99     102      33
      87      84      99      34      87      90      93       1      90      93
      96       1      99     102     105       1     102     105     108       1
%FLAG DIHEDRALS_INC_HYDROGEN                                                    
%FORMAT(10I8)                                                                   
       0       3       6     132       4       0       3       6     135       4
       3       6       9     138       4       3       6       9     141       4
     117       0       3       6       4     120       0       3       6       4
     123       0       3       6       4       9       6       3     126       4
       9       6       3     129       4      12       9       6     132       5
      12       9       6     135       5      15      12       9     138       6
      15      12       9     141       6      15      18      21     144      13
      18      21      24     147      13      18      48      45     162      13
      24      27      30     150       8      24      27      45     162      13
      27      24      21     144      13      30      27      24     147      13
      30      27      45     162      13      30      33      36     153      16
      30      33      36     156      16      30      33      36     159      16
      36      33      30     150      15      39      33      30     150      15
      39      33      36     153      16      39      33      36     156      16
      39      33      36     159      16      42      33      30     150      15
      42      33      36     153      16      42      33      36     156      16
      42      33      36     159      16      45      27      24     147      13
      45      27      30     150       8      48      18      21     144      13
      51      48      45     162      13      51      12       9     138       6
      51      12       9     141       6      54      60      63     165      13
      54      60     114     246      13      60      63      66     168      13
      60     114     111     243      13      63      60     114     246      13
      66      69     111     243      13      69      66      63     165      13
      69      72      75     171      20      69      72      75     174      20
      69     111     114     246      13      72      69      66     168      13
      72      69     111     243      13      72      75      78     177      21
      72      75     -78     177       6      72      75      78     180      21
      72      75     -78     180       6      75      78      81     183       5
      75      78      81     186       5      81      78      75     171       5
      81      78      75     174       5      81      84      87     189      25
      81      84      87     192      25      81      84      99     216      25
      81      84      99     219      25      84      81      78     177      26
      84      81      78     180      26      84      87      90     195      26
      84      87      90     198      26      84      99     102     222      26
      84      99     102     225      26      87      84      81     183      25
      87      84      81     186      25      87      84      99     216      25
      87      84      99     219      25      87      90      93     201       4
      87      90      93     204       4      90      93      96     207       4
      90      93      96     210       4      90      93      96     213       4
      93      90      87     189       5      93      90      87     192       5
      96      93      90     195       4      96      93      90     198       4
      99      84      81     183      25      99      84      81     186      25
      99      84      87     189      25      99      84      87     192      25
      99     102     105     228       4      99     102     105     231       4
     102     105     108     234       4     102     105     108     237       4
     102     105     108     240       4     105     102      99     216       5
     105     102      99     219       5     108     105     102     222       4
     108     105     102     225       4     111      69      66     168      13
     114      60      63     165      13     117       0       3     126      27
     117       0       3     129      27     120       0       3     126      27
     120       0       3     129      27     123       0       3     126      27
     123       0       3     129      27     126       3       6     132      27
     126       3       6     135      27     129       3       6     132      27
     129       3       6     135      27     132       6       9     138      27
     132       6       9     141      27     135       6       9     138      27
     135       6       9     141      27     144      21      24     147      13
     165      63      66     168      13     171      75      78     177       5
     171      75      78     180       5     174      75      78     177       5
     174      75      78     180       5     177      78      81     183       5
     177      78      81     186       5     180      78      81     183       5
     180      78      81     186       5     189      87      90     195       5
     189      87      90     198       5     192      87      90     195       5
     192      87      90     198       5     195      90      93     201      27
     195      90      93     204      27     198      90      93     201      27
     198      90      93     204      27     201      93      96     207      27
     201      93      96     210      27     201      93      96     213      27
     204      93      96     207      27     204      93      96     210      27
     204      93      96     213      27     216      99     102     222       5
     216      99     102     225       5     219      99     102     222       5
     219      99     102     225       5     222     102     105     228      27
     222     102     105     231      27     225     102     105     228      27
     225     102     105     231      27     228     105     108     234      27
     228     105     108     237      27     228     105     108     240      27
     231     105     108     234      27     231     105     108     237      27
     231     105     108     240      27     243     111     114     246      13
      18      24     -21    -144      28      21      27     -24    -147      28
      27     150     -30     -33      28      27      48     -45    -162      28
      60      66     -63    -165      28      63      69     -66    -168      28
      69     114    -111    -243      28      60     111    -114    -246      28
%FLAG DIHEDRALS_WITHOUT_HYDROGEN                                                
%FORMAT(10I8)                                                                   
       0       3       6       9       1       0       3      -6       9       2
       0       3      -6       9       3       3       6       9      12       5
       6       9      12      15       6       6       9      12      51       7
       9      12      15      18       8       9      12      51      48       9
       9      12      51      54       9      12      15      18      21      10
      12      15     -18      48      10      12      51      48      45      11
      12      51     -48      18      11      12      51      54      57      12
      12      51      54      60      12      15      12     -51      48       9
      15      12      51      54       9      15      18      21      24      13
      15      18      48      45      13      15      18     -48      51      13
      18      15     -12      51       8      18      21      24      27      13
      18      48     -45      27      13      18      48      51      54      11
      21      18      48      45      13      21      18      48      51      13
      21      24      27      30      13      21      24     -27      45      13
      24      21      18      48      13      24      27      30      33       8
      24      27     -45      48      13      27      30      33      36      14
      27      30      33      39      15      27      30      33      42      15
      27      45      48      51      13      30      27      45      48      13
      33      30      27      45       8      45      48      51      54      11
      48      51      54      57      12      48      51      54      60      12
      51      54      60      63      17      51      54      60     114      17
      54      60      63      66      13      54      60     114     111      13
      57      54      60      63      18      57      54      60     114      18
      60      63      66      69      13      60     114    -111      69      13
      63      60     114     111      13      63      66      69      72      13
      63      66     -69     111      13      66      63      60     114      13
      66      69      72      75      19      66      69    -111     114      13
      69      72      75      78      20      72      69     111     114      13
      72      75      78      81       5      75      72      69     111      19
      75      78      81      84      22      78      81      84      87      23
      78      81     -84      87      24      78      81      84      99      23
      78      81     -84      99      24      81      84      87      90      23
      81      84     -87      90      24      81      84      99     102      23
      81      84     -99     102      24      84      87      90      93      22
      84      99     102     105      22      87      84      99     102      23
      87      84     -99     102      24      87      90      93      96       1
      87      90     -93      96       2      87      90     -93      96       3
      90      87      84      99      23      90      87     -84      99      24
      99     102     105     108       1      99     102    -105     108       2
      99     102    -105     108       3       9      51     -12     -15      28
      21      48     -18     -15      28      24      45     -27     -30      28
      18      45     -48     -51      28      54      48     -51     -12      28
      60      51     -54     -57      29      54      63     -60    -114      28
      66     111     -69     -72      28
%FLAG EXCLUDED_ATOMS_LIST                                                       
%FORMAT(10I8)                                                                   
       2       3       4      40      41      42      43      44      45      46
       3       4       5      40      41      42      43      44      45      46
      47      48       4       5       6      18      40      41      42      43
      44      45      46      47      48       5       6       7      17      18
      19      43      44      45      46      47      48       6       7       8
      16      17      18      19      20      21      45      46      47      48
       7       8       9      16      17      18      19      47      48      49
       8       9      10      16      17      18      19      49      50      55
       9      10      11      16      17      18      49      50      10      11
      12      16      17      49      50      51      55      11      12      13
      14      15      16      17      18      49      50      51      55      12
      13      14      15      16      17      50      51      52      53      54
      55      13      14      15      16      51      52      53      54      14
      15      51      52      53      54      15      51      52      53      54
      51      52      53      54      17      18      19      50      51      55
      18      19      20      21      49      55      19      20      21      22
      39      47      48      55      20      21      22      23      38      39
      56      83      21      22      39      22      23      24      38      39
      56      57      82      83      23      24      25      38      39      56
      57      83      24      25      26      38      39      56      57      82
      25      26      27      38      39      56      57      58      59      82
      83      26      27      28      38      39      57      58      59      60
      61      82      27      28      29      38      58      59      60      61
      62      63      28      29      30      34      58      59      60      61
      62      63      29      30      31      34      35      58      59      60
      61      62      63      64      65      73      74      30      31      32
      34      35      36      60      61      62      63      64      65      66
      67      73      74      75      76      31      32      33      34      35
      62      63      64      65      66      67      68      69      73      74
      32      33      34      64      65      66      67      68      69      70
      71      72      33      64      65      66      67      68      69      70
      71      72      66      67      68      69      70      71      72      35
      36      37      62      63      64      65      73      74      75      76
      77      78      36      37      73      74      75      76      77      78
      79      80      81      37      73      74      75      76      77      78
      79      80      81      75      76      77      78      79      80      81
      39      57      82      83      56      82      83      41      42      43
      44      42      43      44      43      44      44      45      46      45
      46      46      47      48      47      48      48       0      50       0
       0      53      54      54       0       0      57       0      59      60
      61      60      61      61      62      63      62      63      63       0
      65      66      67      66      67      67      68      69      68      69
      69      70      71      72      70      71      72      71      72      72
       0      74      75      76      75      76      76      77      78      77
      78      78      79      80      81      79      80      81      80      81
      81       0      83       0
%FLAG HBOND_ACOEF                                                               
%FORMAT(5E16.8)                                                                 

%FLAG HBOND_BCOEF                                                               
%FORMAT(5E16.8)                                                                 

%FLAG HBCUT                                                                     
%FORMAT(5E16.8)                                                                 

%FLAG AMBER_ATOM_TYPE                                                           
%FORMAT(20a4)                                                                   
c3  c3  c3  c3  cc  os  ca  ca  ca  ca  nu  s6  c3  o   o   ca  ca  cd  c   o   
ca  ca  ca  ca  os  c3  c3  c3  n3  c3  c3  c3  c3  c3  c3  c3  c3  ca  ca  hc  
hc  hc  hc  hc  hc  hc  hc  hc  ha  ha  hn  h1  h1  h1  ha  ha  ha  h1  h1  hc  
hc  h1  h1  h1  h1  hc  hc  hc  hc  hc  hc  hc  h1  h1  hc  hc  hc  hc  hc  hc  
hc  ha  ha  
%FLAG TREE_CHAIN_CLASSIFICATION                                                 
%FORMAT(20a4)                                                                   
BLA BLA BLA BLA BLA BLA BLA BLA BLA BLA BLA BLA BLA BLA BLA BLA BLA BLA BLA BLA 
BLA BLA BLA BLA BLA BLA BLA BLA BLA BLA BLA BLA BLA BLA BLA BLA BLA BLA BLA BLA 
BLA BLA BLA BLA BLA BLA BLA BLA BLA BLA BLA BLA BLA BLA BLA BLA BLA BLA BLA BLA 
BLA BLA BLA BLA BLA BLA BLA BLA BLA BLA BLA BLA BLA BLA BLA BLA BLA BLA BLA BLA 
BLA BLA BLA 
%FLAG JOIN_ARRAY                                                                
%FORMAT(10I8)                                                                   
       0       0       0       0       0       0       0       0       0       0
       0       0       0       0       0       0       0       0       0       0
       0       0       0       0       0       0       0       0       0       0
       0       0       0       0       0       0       0       0       0       0
       0       0       0       0       0       0       0       0       0       0
       0       0       0       0       0       0       0       0       0       0
       0       0       0       0       0       0       0       0       0       0
       0       0       0       0       0       0       0       0       0       0
       0       0       0
%FLAG IROTAT                                                                    
%FORMAT(10I8)                                                                   
       0       0       0       0       0       0       0       0       0       0
       0       0       0       0       0       0       0       0       0       0
       0       0       0       0       0       0       0       0       0       0
       0       0       0       0       0       0       0       0       0       0
       0       0       0       0       0       0       0       0       0       0
       0       0       0       0       0       0       0       0       0       0
       0       0       0       0       0       0       0       0       0       0
       0       0       0       0       0       0       0       0       0       0
       0       0       0
%FLAG RADIUS_SET                                                                
%FORMAT(1a80)                                                                   
modified Bondi radii (mbondi)                                                   
%FLAG RADII                                                                     
%FORMAT(5E16.8)                                                                 
  1.70000000E+00  1.70000000E+00  1.70000000E+00  1.70000000E+00  1.70000000E+00
  1.50000000E+00  1.70000000E+00  1.70000000E+00  1.70000000E+00  1.70000000E+00
  1.55000000E+00  1.80000000E+00  1.70000000E+00  1.50000000E+00  1.50000000E+00
  1.70000000E+00  1.70000000E+00  1.70000000E+00  1.70000000E+00  1.50000000E+00
  1.70000000E+00  1.70000000E+00  1.70000000E+00  1.70000000E+00  1.50000000E+00
  1.70000000E+00  1.70000000E+00  1.70000000E+00  1.55000000E+00  1.70000000E+00
  1.70000000E+00  1.70000000E+00  1.70000000E+00  1.70000000E+00  1.70000000E+00
  1.70000000E+00  1.70000000E+00  1.70000000E+00  1.70000000E+00  1.30000000E+00
  1.30000000E+00  1.30000000E+00  1.30000000E+00  1.30000000E+00  1.30000000E+00
  1.30000000E+00  1.30000000E+00  1.30000000E+00  1.30000000E+00  1.30000000E+00
  1.30000000E+00  1.30000000E+00  1.30000000E+00  1.30000000E+00  1.30000000E+00
  1.30000000E+00  1.30000000E+00  1.30000000E+00  1.30000000E+00  1.30000000E+00
  1.30000000E+00  1.30000000E+00  1.30000000E+00  1.30000000E+00  1.30000000E+00
  1.30000000E+00  1.30000000E+00  1.30000000E+00  1.30000000E+00  1.30000000E+00
  1.30000000E+00  1.30000000E+00  1.30000000E+00  1.30000000E+00  1.30000000E+00
  1.30000000E+00  1.30000000E+00  1.30000000E+00  1.30000000E+00  1.30000000E+00
  1.30000000E+00  1.30000000E+00  1.30000000E+00
%FLAG SCREEN                                                                    
%FORMAT(5E16.8)                                                                 
  7.20000000E-01  7.20000000E-01  7.20000000E-01  7.20000000E-01  7.20000000E-01
  8.50000000E-01  7.20000000E-01  7.20000000E-01  7.20000000E-01  7.20000000E-01
  7.90000000E-01  9.60000000E-01  7.20000000E-01  8.50000000E-01  8.50000000E-01
  7.20000000E-01  7.20000000E-01  7.20000000E-01  7.20000000E-01  8.50000000E-01
  7.20000000E-01  7.20000000E-01  7.20000000E-01  7.20000000E-01  8.50000000E-01
  7.20000000E-01  7.20000000E-01  7.20000000E-01  7.90000000E-01  7.20000000E-01
  7.20000000E-01  7.20000000E-01  7.20000000E-01  7.20000000E-01  7.20000000E-01
  7.20000000E-01  7.20000000E-01  7.20000000E-01  7.20000000E-01  8.50000000E-01
  8.50000000E-01  8.50000000E-01  8.50000000E-01  8.50000000E-01  8.50000000E-01
  8.50000000E-01  8.50000000E-01  8.50000000E-01  8.50000000E-01  8.50000000E-01
  8.50000000E-01  8.50000000E-01  8.50000000E-01  8.50000000E-01  8.50000000E-01
  8.50000000E-01  8.50000000E-01  8.50000000E-01  8.50000000E-01  8.50000000E-01
  8.50000000E-01  8.50000000E-01  8.50000000E-01  8.50000000E-01  8.50000000E-01
  8.50000000E-01  8.50000000E-01  8.50000000E-01  8.50000000E-01  8.50000000E-01
  8.50000000E-01  8.50000000E-01  8.50000000E-01  8.50000000E-01  8.50000000E-01
  8.50000000E-01  8.50000000E-01  8.50000000E-01  8.50000000E-01  8.50000000E-01
  8.50000000E-01  8.50000000E-01  8.50000000E-01
%FLAG IPOL                                                                      
%FORMAT(1I8)                                                                    
       0
