MOL
    83
  -6.0830000  -5.9910000   1.0590000  -5.8520000  -4.8140000   0.1230000
  -4.7010000  -5.0910000  -0.8480000  -4.4910000  -3.9690000  -1.8680000
  -3.9660000  -2.7180000  -1.2540000  -4.9060000  -1.7980000  -0.8990000
  -4.2520000  -0.7440000  -0.3520000  -4.8640000   0.4100000   0.1330000
  -4.0220000   1.3910000   0.6630000  -2.6420000   1.1880000   0.7280000
  -1.7990000   2.2300000   1.2290000  -1.0900000   3.2270000   0.0410000
   0.5060000   3.4850000   0.7710000  -0.9050000   2.4940000  -1.1930000
  -1.8190000   4.4760000   0.0870000  -2.0560000   0.0140000   0.2350000
  -2.8810000  -0.9740000  -0.3420000  -2.6890000  -2.2460000  -0.9780000
  -1.4680000  -2.9810000  -1.2800000  -1.4310000  -4.2090000  -1.2650000
  -0.2230000  -2.2470000  -1.6320000  -0.2400000  -1.0430000  -2.3460000
   0.9570000  -0.3810000  -2.6470000   2.1790000  -0.9300000  -2.2620000
   3.4120000  -0.3880000  -2.4900000   3.5020000   1.0140000  -2.7470000
   3.2670000   1.8630000  -1.4940000   4.1700000   1.4290000  -0.3310000
   3.9120000   2.2420000   0.8800000   4.2250000   1.4610000   2.0960000
   2.9620000   0.8790000   2.7520000   2.2370000  -0.1820000   1.9230000
   1.0530000  -0.7660000   2.6790000   4.6970000   3.4920000   0.8290000
   4.1440000   4.5570000   1.7880000   4.9450000   5.8560000   1.6880000
   4.3980000   6.9210000   2.6260000   2.1970000  -2.1580000  -1.5960000
   1.0060000  -2.8140000  -1.2780000  -6.9070000  -5.7730000   1.7450000
  -6.3390000  -6.8950000   0.4970000  -5.1890000  -6.1980000   1.6560000
  -6.7720000  -4.6150000  -0.4370000  -5.6370000  -3.9240000   0.7250000
  -4.9170000  -6.0160000  -1.3970000  -3.7790000  -5.2680000  -0.2810000
  -5.4330000  -3.7590000  -2.3900000  -3.7890000  -4.3120000  -2.6370000
  -5.9380000   0.5390000   0.0820000  -4.4610000   2.3190000   1.0200000
  -2.2820000   2.8390000   1.8940000   1.0860000   4.1190000   0.0980000
   0.3830000   3.9780000   1.7370000   0.9940000   2.5180000   0.8860000
  -0.9790000  -0.1130000   0.2850000  -1.1740000  -0.5950000  -2.6780000
   0.8920000   0.5580000  -3.1870000   4.5250000   1.1930000  -3.0990000
   2.8510000   1.3180000  -3.5740000   3.4320000   2.9150000  -1.7510000
   2.2210000   1.7720000  -1.1810000   5.2290000   1.4780000  -0.6190000
   3.9630000   0.3740000  -0.1260000   4.9550000   0.6650000   1.8930000
   4.7020000   2.0910000   2.8560000   3.2570000   0.4360000   3.7120000
   2.2690000   1.6960000   2.9910000   2.9310000  -0.9910000   1.6660000
   1.8690000   0.2470000   0.9860000   1.3770000  -1.2390000   3.6120000
   0.5520000  -1.5250000   2.0700000   0.3230000   0.0120000   2.9220000
   4.6570000   3.9200000  -0.1800000   5.7570000   3.2950000   1.0410000
   3.0950000   4.7610000   1.5420000   4.1660000   4.2030000   2.8240000
   5.9960000   5.6650000   1.9360000   4.9170000   6.2350000   0.6600000
   4.9850000   7.8410000   2.5380000   3.3570000   7.1580000   2.3850000
   4.4430000   6.5880000   3.6670000   3.1480000  -2.6030000  -1.3120000
   1.0420000  -3.7670000  -0.7530000
