%VERSION  VERSION_STAMP = V0001.000  DATE = 07/11/26  14:21:20                  
%FLAG TITLE                                                                     
%FORMAT(20a4)                                                                   
MOL                                                                             
%FLAG POINTERS                                                                  
%FORMAT(10I8)                                                                   
      70      15      29      46      63      66     119     102       0       0
     386       1      46      66     102      28      55      23      18       0
       0       0       0       0       0       0       0       0      70       0
       0
%FLAG ATOM_NAME                                                                 
%FORMAT(20a4)                                                                   
C1  N1  C2  N2  C3  C4  C5  N3  C6  C7  N4  C8  C9  C10 C11 C12 C13 N5  C14 C15 
C16 C17 C18 S1  O1  O2  C19 C20 C21 C22 C23 N6  C24 C25 C26 C27 C28 N7  C29 C30 
C31 H1  H2  H3  H4  H5  H6  H7  H8  H9  H10 H11 H12 H13 H14 H15 H16 H17 H18 H19 
H20 H21 H22 H23 H24 H25 H26 H27 H28 H29 
%FLAG CHARGE                                                                    
%FORMAT(5E16.8)                                                                 
  3.38934780E-01 -3.53330397E+00  7.20509742E+00 -1.21724964E+01  5.70722436E+00
 -4.84530957E+00  5.35917843E+00 -1.21178295E+01  3.27636954E+00  4.20024015E+00
 -1.44776174E+01  4.79428713E+00 -1.71836289E+00 -2.38712130E+00 -1.94978610E+00
 -2.78801190E+00  3.97246140E-01 -7.65336600E-02 -2.79347859E+00 -3.48045930E+00
 -3.48045930E+00 -2.79347859E+00 -2.64223350E+00  2.59813553E+01 -1.17861836E+01
 -1.17861836E+01  2.42721036E+00 -2.55658869E+00 -2.04089760E+00 -3.41303679E+00
  6.92811846E+00 -1.09880469E+01 -9.49381830E-01 -2.84814549E+00 -8.01781200E-01
 -1.42133940E+00  4.46081904E+00 -6.92082954E+00 -8.20003500E-01 -3.88134990E+00
  4.07450628E+00  1.04535868E+00  1.04535868E+00  1.04535868E+00  1.11338253E+00
  8.21825730E-01  1.26098316E+00  1.26098316E+00  1.26098316E+00  1.26098316E+00
  1.47053961E+00  1.34298351E+00  1.34298351E+00  2.53289970E+00  2.60578890E+00
  2.56934430E+00  3.11601330E+00  2.80623420E+00  2.80623420E+00  3.11601330E+00
  3.07956870E+00  3.18890250E+00  2.75156730E+00  2.75156730E+00  5.84935830E-01
  1.15164936E+00  1.15164936E+00  2.56934430E+00  2.62401120E+00  2.58756660E+00
%FLAG ATOMIC_NUMBER                                                             
%FORMAT(10I8)                                                                   
       6       7       6       7       6       6       6       7       6       6
       7       6       6       6       6       6       6       7       6       6
       6       6       6      16       8       8       6       6       6       6
       6       7       6       6       6       6       6       7       6       6
       6       1       1       1       1       1       1       1       1       1
       1       1       1       1       1       1       1       1       1       1
       1       1       1       1       1       1       1       1       1       1
%FLAG MASS                                                                      
%FORMAT(5E16.8)                                                                 
  1.20100000E+01  1.40100000E+01  1.20100000E+01  1.40100000E+01  1.20100000E+01
  1.20100000E+01  1.20100000E+01  1.40100000E+01  1.20100000E+01  1.20100000E+01
  1.40100000E+01  1.20100000E+01  1.20100000E+01  1.20100000E+01  1.20100000E+01
  1.20100000E+01  1.20100000E+01  1.40100000E+01  1.20100000E+01  1.20100000E+01
  1.20100000E+01  1.20100000E+01  1.20100000E+01  3.20600000E+01  1.60000000E+01
  1.60000000E+01  1.20100000E+01  1.20100000E+01  1.20100000E+01  1.20100000E+01
  1.20100000E+01  1.40100000E+01  1.20100000E+01  1.20100000E+01  1.20100000E+01
  1.20100000E+01  1.20100000E+01  1.40100000E+01  1.20100000E+01  1.20100000E+01
  1.20100000E+01  1.00800000E+00  1.00800000E+00  1.00800000E+00  1.00800000E+00
  1.00800000E+00  1.00800000E+00  1.00800000E+00  1.00800000E+00  1.00800000E+00
  1.00800000E+00  1.00800000E+00  1.00800000E+00  1.00800000E+00  1.00800000E+00
  1.00800000E+00  1.00800000E+00  1.00800000E+00  1.00800000E+00  1.00800000E+00
  1.00800000E+00  1.00800000E+00  1.00800000E+00  1.00800000E+00  1.00800000E+00
  1.00800000E+00  1.00800000E+00  1.00800000E+00  1.00800000E+00  1.00800000E+00
%FLAG ATOM_TYPE_INDEX                                                           
%FORMAT(10I8)                                                                   
       1       2       3       4       3       3       1       5       1       1
       6       1       3       3       3       3       3       2       3       3
       3       3       3       7       8       8       3       3       3       3
       3       4       1       3       3       3       9      10       3       3
       3      11      11      11      12      13      11      11      11      11
      11      11      11      14      14      14      13      14      14      13
      14      14      14      14      13      15      15      14      14      14
%FLAG NUMBER_EXCLUDED_ATOMS                                                     
%FORMAT(10I8)                                                                   
      10      13       9       5       7      11      11      15      15      18
      19      15      12      10       7       9      11      11       8       6
       5       5       5      12       4       3       8       7       7       6
       4       3      11      11      10       8       5       1       5       3
       9       2       1       1       1       1       1       1       2       1
       2       1       1       1       1       1       1       1       1       1
       1       1       1       1       1       1       1       1       1       1
%FLAG NONBONDED_PARM_INDEX                                                      
%FORMAT(10I8)                                                                   
       1       2       4       7      11      16      22      29      37      46
      56      67      79      92     106       2       3       5       8      12
      17      23      30      38      47      57      68      80      93     107
       4       5       6       9      13      18      24      31      39      48
      58      69      81      94     108       7       8       9      10      14
      19      25      32      40      49      59      70      82      95     109
      11      12      13      14      15      20      26      33      41      50
      60      71      83      96     110      16      17      18      19      20
      21      27      34      42      51      61      72      84      97     111
      22      23      24      25      26      27      28      35      43      52
      62      73      85      98     112      29      30      31      32      33
      34      35      36      44      53      63      74      86      99     113
      37      38      39      40      41      42      43      44      45      54
      64      75      87     100     114      46      47      48      49      50
      51      52      53      54      55      65      76      88     101     115
      56      57      58      59      60      61      62      63      64      65
      66      77      89     102     116      67      68      69      70      71
      72      73      74      75      76      77      78      90     103     117
      79      80      81      82      83      84      85      86      87      88
      89      90      91     104     118      92      93      94      95      96
      97      98      99     100     101     102     103     104     105     119
     106     107     108     109     110     111     112     113     114     115
     116     117     118     119     120
%FLAG RESIDUE_LABEL                                                             
%FORMAT(20a4)                                                                   
MOL 
%FLAG RESIDUE_POINTER                                                           
%FORMAT(10I8)                                                                   
       1
%FLAG BOND_FORCE_CONSTANT                                                       
%FORMAT(5E16.8)                                                                 
  2.62900000E+02  3.75900000E+02  3.54500000E+02  4.50700000E+02  4.03500000E+02
  3.69100000E+02  4.16100000E+02  4.03900000E+02  2.62600000E+02  2.61800000E+02
  3.47100000E+02  2.32500000E+02  2.61200000E+02  3.03100000E+02  2.50300000E+02
  3.78600000E+02  3.95700000E+02  3.49500000E+02  4.03900000E+02  3.40200000E+02
  4.00100000E+02  6.53200000E+02  2.09800000E+02  4.14200000E+02  3.90100000E+02
  3.75900000E+02  3.34100000E+02  8.79300000E+02
%FLAG BOND_EQUIL_VALUE                                                          
%FORMAT(5E16.8)                                                                 
  1.46300000E+00  1.09700000E+00  1.38000000E+00  1.31700000E+00  1.08200000E+00
  1.36900000E+00  1.37300000E+00  1.08200000E+00  1.50200000E+00  1.46400000E+00
  1.38600000E+00  1.53800000E+00  1.46500000E+00  1.69600000E+00  1.51600000E+00
  1.39800000E+00  1.08600000E+00  1.38400000E+00  1.08200000E+00  1.42800000E+00
  1.08400000E+00  1.46600000E+00  1.79100000E+00  1.33900000E+00  1.08900000E+00
  1.09700000E+00  1.43300000E+00  1.15700000E+00
%FLAG ANGLE_FORCE_CONSTANT                                                      
%FORMAT(5E16.8)                                                                 
  6.37000000E+01  6.15000000E+01  1.15500000E+02  6.12000000E+01  9.27000000E+01
  8.24000000E+01  7.05000000E+01  7.39000000E+01  6.25000000E+01  9.11000000E+01
  6.17000000E+01  6.68000000E+01  4.78000000E+01  8.39000000E+01  4.79000000E+01
  6.51000000E+01  6.52000000E+01  6.12000000E+01  8.35000000E+01  8.62000000E+01
  8.33000000E+01  6.49000000E+01  4.69000000E+01  6.57000000E+01  6.43000000E+01
  6.52000000E+01  4.68000000E+01  6.12000000E+01  8.35000000E+01  1.23400000E+02
  9.22000000E+01  6.56000000E+01  4.75000000E+01  6.88000000E+01  4.87000000E+01
  8.72000000E+01  6.94000000E+01  6.15000000E+01  7.03000000E+01  4.90000000E+01
  4.78000000E+01  4.76000000E+01  6.34000000E+01  8.13000000E+01  1.26400000E+02
  9.43000000E+01  7.04000000E+01  8.68000000E+01  4.86000000E+01  6.41000000E+01
  4.73000000E+01  6.78000000E+01  7.43000000E+01  3.88000000E+01  3.90000000E+01
%FLAG ANGLE_EQUIL_VALUE                                                         
%FORMAT(5E16.8)                                                                 
  2.20714432E+00  1.89856997E+00  1.95860933E+00  2.12144862E+00  1.86732857E+00
  2.14204351E+00  1.91811767E+00  1.84114862E+00  2.19073822E+00  1.94866095E+00
  2.11429276E+00  2.08479669E+00  2.24239998E+00  1.96070372E+00  1.91357981E+00
  1.99857738E+00  2.09404693E+00  1.91619781E+00  1.92789152E+00  2.11097664E+00
  1.93801443E+00  1.94621748E+00  1.91218355E+00  1.96087826E+00  2.01149283E+00
  1.95599133E+00  1.91637234E+00  1.91776860E+00  1.95756213E+00  1.86977203E+00
  1.78791605E+00  2.10783504E+00  1.91218355E+00  2.09474507E+00  2.09230160E+00
  2.06542352E+00  1.97484090E+00  2.10364625E+00  1.99299233E+00  2.12511381E+00
  2.24239998E+00  2.11307103E+00  2.08427309E+00  2.01987041E+00  2.11900515E+00
  1.89106506E+00  2.04587583E+00  2.14570870E+00  2.10033012E+00  2.02510640E+00
  1.92806605E+00  2.09910839E+00  3.13269282E+00  1.89298492E+00  1.87762601E+00
%FLAG DIHEDRAL_FORCE_CONSTANT                                                   
%FORMAT(5E16.8)                                                                 
  1.70000000E+00  4.75000000E+00  4.00000000E+00  0.00000000E+00  0.00000000E+00
  0.00000000E+00  7.33000000E-01  1.55555556E-01  2.10000000E-01  3.62500000E+00
  2.80000000E-01  5.80000000E-01  3.00000000E-01  8.00000000E-02  2.25000000E-01
  3.13333333E+00  2.45000000E-01  1.00000000E-01  1.30000000E+00  6.03000000E-01
  4.80000000E+00  3.32000000E-01  1.10000000E+00
%FLAG DIHEDRAL_PERIODICITY                                                      
%FORMAT(5E16.8)                                                                 
  2.00000000E+00  2.00000000E+00  2.00000000E+00  3.00000000E+00  2.00000000E+00
  2.00000000E+00  2.00000000E+00  3.00000000E+00  3.00000000E+00  2.00000000E+00
  2.00000000E+00  3.00000000E+00  3.00000000E+00  3.00000000E+00  3.00000000E+00
  2.00000000E+00  2.00000000E+00  3.00000000E+00  2.00000000E+00  2.00000000E+00
  2.00000000E+00  2.00000000E+00  2.00000000E+00
%FLAG DIHEDRAL_PHASE                                                            
%FORMAT(5E16.8)                                                                 
  3.14159400E+00  3.14159400E+00  3.14159400E+00  0.00000000E+00  3.14159400E+00
  0.00000000E+00  3.14159400E+00  0.00000000E+00  0.00000000E+00  3.14159400E+00
  3.14159400E+00  0.00000000E+00  0.00000000E+00  0.00000000E+00  0.00000000E+00
  0.00000000E+00  3.14159400E+00  0.00000000E+00  3.14159400E+00  3.14159400E+00
  3.14159400E+00  0.00000000E+00  3.14159400E+00
%FLAG SCEE_SCALE_FACTOR                                                         
%FORMAT(5E16.8)                                                                 
  1.20000000E+00  1.20000000E+00  1.20000000E+00  1.20000000E+00  1.20000000E+00
  1.20000000E+00  1.20000000E+00  1.20000000E+00  1.20000000E+00  1.20000000E+00
  1.20000000E+00  1.20000000E+00  1.20000000E+00  1.20000000E+00  1.20000000E+00
  1.20000000E+00  1.20000000E+00  1.20000000E+00  1.20000000E+00  1.20000000E+00
  1.20000000E+00  1.20000000E+00  0.00000000E+00
%FLAG SCNB_SCALE_FACTOR                                                         
%FORMAT(5E16.8)                                                                 
  2.00000000E+00  2.00000000E+00  2.00000000E+00  2.00000000E+00  2.00000000E+00
  2.00000000E+00  2.00000000E+00  2.00000000E+00  2.00000000E+00  2.00000000E+00
  2.00000000E+00  2.00000000E+00  2.00000000E+00  2.00000000E+00  2.00000000E+00
  2.00000000E+00  2.00000000E+00  2.00000000E+00  2.00000000E+00  2.00000000E+00
  2.00000000E+00  2.00000000E+00  0.00000000E+00
%FLAG SOLTY                                                                     
%FORMAT(5E16.8)                                                                 
  0.00000000E+00  0.00000000E+00  0.00000000E+00  0.00000000E+00  0.00000000E+00
  0.00000000E+00  0.00000000E+00  0.00000000E+00  0.00000000E+00  0.00000000E+00
  0.00000000E+00  0.00000000E+00  0.00000000E+00  0.00000000E+00  0.00000000E+00
  0.00000000E+00  0.00000000E+00  0.00000000E+00
%FLAG LENNARD_JONES_ACOEF                                                       
%FORMAT(5E16.8)                                                                 
  1.02073671E+06  9.96191545E+05  9.62429652E+05  8.43969952E+05  8.20152428E+05
  6.96551276E+05  9.31115275E+05  9.08092643E+05  7.69642101E+05  8.49322032E+05
  9.93125065E+05  9.58637891E+05  8.17329084E+05  9.05243612E+05  9.54790629E+05
  8.59569453E+05  8.37490391E+05  7.10207765E+05  7.84008042E+05  8.34792752E+05
  7.23647490E+05  2.09089895E+06  2.05449504E+06  1.73376823E+06  1.90820499E+06
  2.04935397E+06  1.76274168E+06  4.26366419E+06  6.30925504E+05  6.04208667E+05
  5.17507491E+05  5.74782316E+05  6.01376873E+05  5.29641935E+05  1.30884564E+06
  3.76435470E+05  1.43239677E+06  1.40372344E+06  1.18640578E+06  1.30700124E+06
  1.39989391E+06  1.20705609E+06  2.92607619E+06  8.92208123E+05  2.00671338E+06
  8.25619280E+05  8.00550675E+05  6.80770393E+05  7.52793431E+05  7.97644644E+05
  6.94511233E+05  1.69857439E+06  5.04173226E+05  1.16165080E+06  6.65027384E+05
  6.97998263E+04  6.42436358E+04  5.63013422E+04  6.34160397E+04  6.37258620E+04
  5.82112737E+04  1.48672098E+05  3.86646725E+04  1.00303788E+05  5.43787653E+04
  3.39005767E+03  6.46910138E+04  5.96470418E+04  5.22195041E+04  5.87815925E+04
  5.91752946E+04  5.39664468E+04  1.37628606E+05  3.59538577E+04  9.28958515E+04
  5.04557707E+04  3.17496391E+03  2.97255425E+03  7.75673747E+04  7.19580450E+04
  6.27751680E+04  7.05112106E+04  7.14263282E+04  6.47735754E+04  1.64354276E+05
  4.36069364E+04  1.11111404E+05  6.07357264E+04  3.94664935E+03  3.69092714E+03
  4.56536476E+03  9.27554496E+04  8.65595848E+04  7.52549148E+04  8.43518904E+04
  8.59636060E+04  7.75325560E+04  1.95762765E+05  5.27277400E+04  1.32549375E+05
  7.29041169E+04  4.88692384E+03  4.56536476E+03  5.62610481E+03  6.90855956E+03
  1.00235148E+05  9.33839501E+04  8.12662403E+04  9.11435380E+04  9.27277603E+04
  8.37616145E+04  2.11783234E+05  5.68021765E+04  1.43334551E+05  7.86991059E+04
  5.22955465E+03  4.88692384E+03  6.02863188E+03  7.41026906E+03  7.94617769E+03
%FLAG LENNARD_JONES_BCOEF                                                       
%FORMAT(5E16.8)                                                                 
  6.63431737E+02  7.68900328E+02  8.86629877E+02  5.90251928E+02  6.82622272E+02
  5.24668528E+02  6.12468585E+02  7.09588248E+02  5.44830041E+02  5.65406768E+02
  7.77671659E+02  8.96356641E+02  6.90283231E+02  7.17661669E+02  9.06156687E+02
  5.75038595E+02  6.65894869E+02  5.11427129E+02  5.30834917E+02  6.73442883E+02
  4.98353106E+02  1.20800124E+03  1.40479403E+03  1.07629402E+03  1.11546536E+03
  1.42122969E+03  1.04764062E+03  2.19459223E+03  5.62969425E+02  6.46321327E+02
  4.98871431E+02  5.19385932E+02  6.53166727E+02  4.87196412E+02  1.03157656E+03
  4.69350655E+02  8.66911122E+02  1.00679935E+03  7.71958727E+02  8.00430491E+02
  1.01846332E+03  7.51664026E+02  1.57633023E+03  7.38469198E+02  1.13185062E+03
  5.99411656E+02  6.92450812E+02  5.32561965E+02  5.53242961E+02  7.00156173E+02
  5.19268574E+02  1.09380282E+03  5.05570298E+02  7.84289859E+02  5.40444287E+02
  1.14981426E+02  1.29412081E+02  1.01040256E+02  1.05935811E+02  1.30560951E+02
  9.91793374E+01  2.13489607E+02  9.23664132E+01  1.52041700E+02  1.01955600E+02
  1.67944276E+01  1.03827676E+02  1.16962018E+02  9.12729468E+01  9.56653235E+01
  1.18009316E+02  8.95715726E+01  1.92666848E+02  8.35449674E+01  1.37243835E+02
  9.21175698E+01  1.52447987E+01  1.38359132E+01  1.13692208E+02  1.28466555E+02
  1.00073628E+02  1.04776275E+02  1.29650812E+02  9.81312253E+01  2.10544132E+02
  9.20079458E+01  1.50097689E+02  1.01066951E+02  1.69967767E+01  1.54173833E+01
  1.71467049E+01  1.24325688E+02  1.40899023E+02  1.09570372E+02  1.14599119E+02
  1.42233990E+02  1.07361937E+02  2.29782888E+02  1.01173582E+02  1.63939471E+02
  1.10729433E+02  1.89134207E+01  1.71467049E+01  1.90347353E+01  2.10929191E+01
  1.37787728E+02  1.56025608E+02  1.21392023E+02  1.27000718E+02  1.57492664E+02
  1.18970742E+02  2.54804909E+02  1.11953944E+02  1.81752124E+02  1.22653886E+02
  2.08590256E+01  1.89134207E+01  2.10068861E+01  2.32899892E+01  2.57122925E+01
%FLAG BONDS_INC_HYDROGEN                                                        
%FORMAT(10I8)                                                                   
       0     123       2       0     126       2       0     129       2       6
     132       5      12     135       8      18     138       2      18     141
       2      24     144       2      24     147       2      27     150       2
      33     153       2      33     156       2      39     159      17      42
     162      17      45     165      17      54     168      19      57     171
      21      60     174      21      63     177      19      66     180      17
      81     183      17      84     186      17      87     189      17      90
     192      25      96     195      26      96     198      26     102     201
      17     114     204      17     117     207      17
%FLAG BONDS_WITHOUT_HYDROGEN                                                    
%FORMAT(10I8)                                                                   
       0       3       1       3       6       3       3      15       3       6
       9       4       9      12       6      12      15       7      15      18
       9      18      21      10      21      24      10      21     120      11
      24      27      12      27      30      13      27      96      12      30
      33      13      30      69      14      33      36      15      36      39
      16      36      66      16      39      42      16      42      45      16
      45      48      16      48      51      18      48      66      16      51
      54       3      51      63       3      54      57       7      57      60
      20      60      63       7      69      72      22      69      75      22
      69      78      23      78      81      16      78      93      24      81
      84      16      84      87      16      87      90      16      90      93
      24      96      99      15      99     102      16      99     120      16
     102     105      16     105     108      27     105     114      16     108
     111      28     114     117      16     117     120      16
%FLAG ANGLES_INC_HYDROGEN                                                       
%FORMAT(10I8)                                                                   
       3       0     123       2       3       0     126       2       3       0
     129       2       3       6     132       4       9       6     132       9
       9      12     135      11      15      12     135      13      15      18
     138      15      15      18     141      15      21      18     138      18
      21      18     141      18      21      24     144      18      21      24
     147      18      24      27     150      23      27      24     144      23
      27      24     147      23      27      96     195      27      27      96
     198      27      30      27     150      28      30      33     153      28
      30      33     156      28      36      33     153      33      36      33
     156      33      36      39     159      35      36      66     180      35
      39      42     162      35      42      39     159      35      42      45
     165      35      45      42     162      35      48      45     165      35
      48      66     180      35      51      54     168      38      51      63
     177      38      54      57     171      40      57      54     168      41
      57      60     174      42      60      57     171      42      60      63
     177      41      63      60     174      40      78      81     183      35
      81      84     186      35      84      81     183      35      84      87
     189      35      87      84     186      35      87      90     192      49
      90      87     189      35      93      90     192      50      96      27
     150      23      99      96     195      51      99      96     198      51
      99     102     201      35     105     102     201      35     105     114
     204      35     114     117     207      35     117     114     204      35
     120     117     207      35     123       0     126      54     123       0
     129      54     126       0     129      54     138      18     141      54
     144      24     147      54     153      33     156      54     195      96
     198      55
%FLAG ANGLES_WITHOUT_HYDROGEN                                                   
%FORMAT(10I8)                                                                   
       0       3       6       1       0       3      15       1       3       6
       9       3       3      15      12       5       3      15      18       6
       6       3      15       7       6       9      12       8       9      12
      15      10      12      15      18      12      15      18      21      14
      18      21      24      16      18      21     120      17      21      24
      27      19      21     120     117      20      21     120      99      20
      24      21     120      17      24      27      30      21      24      27
      96      22      27      30      33      24      27      30      69      25
      27      96      99      26      30      27      96      21      30      33
      36      29      30      69      72      30      30      69      75      30
      30      69      78      31      33      30      69      25      33      36
      39      32      33      36      66      32      36      39      42      34
      36      66      48      34      39      36      66      34      39      42
      45      34      42      45      48      34      45      48      51      36
      45      48      66      34      48      51      54      37      48      51
      63      37      51      48      66      36      51      54      57       5
      51      63      60       5      54      51      63       7      54      57
      60      39      57      60      63      39      69      78      81      43
      69      78      93      44      72      69      75      45      72      69
      78      46      75      69      78      46      78      81      84      34
      78      93      90      47      81      78      93      48      81      84
      87      34      84      87      90      34      87      90      93      48
      96      99     102      32      96      99     120      32      99     102
     105      34      99     120     117      34     102      99     120      34
     102     105     108      52     102     105     114      34     105     108
     111      53     105     114     117      34     108     105     114      52
     114     117     120      34
%FLAG DIHEDRALS_INC_HYDROGEN                                                    
%FORMAT(10I8)                                                                   
       0       3       6     132       1       3      15      12     135       3
       3      15      18     138       4       3      15      18     141       4
     123       0       3       6       5     126       0       3       6       5
     129       0       3       6       5       6       9      12     135       2
      12       9       6     132       2      12      15      18     138       4
      12      15      18     141       4     123       0       3      15       5
     126       0       3      15       5     129       0       3      15       5
      15       3       6     132       1      18      15      12     135       3
      18      21      24     144       6      18      21      24     147       6
      21      24      27     150       8      21     120     117     207      10
      24      21      18     138       6      24      21      18     141       6
      24      27      96     195      14      24      27      96     198      14
      27      30      33     153      15      27      30      33     156      15
      30      27      24     144       8      30      27      24     147       8
      30      27      96     195      18      30      27      96     198      18
      33      30      27     150      15      33      36      39     159      10
      33      36      66     180      10      36      39      42     162      10
      39      36      33     153       6      39      36      33     156       6
      39      36      66     180      10      39      42      45     165      10
      45      42      39     159      10      45      48      66     180      10
      48      45      42     162      10      48      51      54     168       1
      48      51      63     177       1      51      48      45     165      10
      51      48      66     180      10      51      54      57     171       3
      51      63      60     174       3      54      51      63     177       1
      54      57      60     174       3      57      60      63     177       3
      60      57      54     168       3      63      60      57     171       3
      63      51      54     168       1      66      48      45     165      10
      66      36      33     153       6      66      36      33     156       6
      66      36      39     159      10      69      30      27     150      13
      69      30      33     153      13      69      30      33     156      13
      69      78      81     183      10      78      81      84     186      10
      78      93      90     192      21      81      84      87     189      10
      84      87      90     192      10      87      84      81     183      10
      90      87      84     186      10      93      90      87     189      10
      93      78      81     183      10      96      27      24     144       8
      96      27      24     147       8      96      99     102     201      10
      99      96      27     150       8      99     120     117     207      10
     102      99      96     195       5     102      99      96     198       5
     102     105     114     204      10     105     114     117     207      10
     108     105     102     201      10     108     105     114     204      10
     114     105     102     201      10     120     117     114     204      10
     120      21      18     138      22     120      21      18     141      22
     120      21      24     144      22     120      21      24     147      22
     120      99      96     195       5     120      99      96     198       5
     120      99     102     201      10     144      24      27     150       8
     147      24      27     150       8     150      27      96     195       8
     150      27      96     198       8     159      39      42     162      10
     162      42      45     165      10     168      54      57     171       3
     171      57      60     174       3     174      60      63     177       3
     183      81      84     186      10     186      84      87     189      10
     189      87      90     192      10     204     114     117     207      10
     132       3      -6      -9      23      15     135     -12      -9      23
      36      42     -39    -159      23      39      45     -42    -162      23
      42      48     -45    -165      23      57     168     -54     -51      23
      54      60     -57    -171      23      63      57     -60    -174      23
      60     177     -63     -51      23      36      48     -66    -180      23
      78      84     -81    -183      23      81      87     -84    -186      23
      84      90     -87    -189      23      87     192     -90     -93      23
      99     105    -102    -201      23     105     117    -114    -204      23
     114     120    -117    -207      23
%FLAG DIHEDRALS_WITHOUT_HYDROGEN                                                
%FORMAT(10I8)                                                                   
       0       3       6       9       1       0       3      15      12       1
       0       3      15      18       1       3       6      -9      12       2
       3      15     -12       9       3       3      15      18      21       4
       6       3     -15      12       1       6       3      15      18       1
       6       9     -12      15       2       9       6      -3      15       1
       9      12      15      18       3      12      15      18      21       4
      15      18      21      24       6      15      18      21     120       6
      18      21      24      27       6      18      21     120     117       7
      18      21     120      99       7      21      24      27      30       8
      21      24      27      96       9      21     120     117     114      10
      21     120     -99      96      10      21     120      99     102      10
      24      21     120     117       7      24      21     120      99       7
      24      27      30      33      11      24      27     -30      33      12
      24      27      30      69      13      24      27     -96      99       8
      27      24      21     120       6      27      30      33      36      13
      27      30      69      72      16      27      30      69      75      16
      27      30      69      78      16      27      96      99     102      17
      27      96     -99     120      17      30      27      96      99      18
      30      33      36      39       6      30      33      36      66       6
      30      69      78      81      19      30      69      78      93      19
      33      30      27      96      11      33      30     -27      96      12
      33      30      69      72      16      33      30      69      75      16
      33      30      69      78      16      33      36      39      42      10
      33      36      66      48      10      36      33      30      69      13
      36      39      42      45      10      36      66     -48      45      10
      36      66      48      51      10      39      36      66      48      10
      39      42     -45      48      10      42      39      36      66      10
      42      45      48      51      10      42      45     -48      66      10
      45      48      51      54      20      45      48      51      63      20
      48      51      54      57       1      48      51      63      60       1
      51      54     -57      60       3      51      63     -60      57       3
      54      51      48      66      20      54      51     -63      60       1
      54      57     -60      63       3      57      54     -51      63       1
      63      51      48      66      20      69      30      27      96      13
      69      78      81      84      10      69      78      93      90      21
      72      69      78      81      19      72      69      78      93      19
      75      69      78      81      19      75      69      78      93      19
      78      81      84      87      10      78      93     -90      87      21
      81      78      93      90      21      81      84     -87      90      10
      84      81      78      93      10      84      87     -90      93      10
      96      99     102     105      10      96      99     120     117      10
      99     102     105     108      10      99     102     105     114      10
      99     120    -117     114      10     102      99     120     117      10
     102     105     108     111       5     102     105    -114     117      10
     105     102      99     120      10     105     114    -117     120      10
     108     105     114     117      10     111     108     105     114       5
       0       6      -3     -15      23      18      12     -15      -3      23
      18      24     -21    -120      23      39      66     -36     -33      23
      45      66     -48     -51      23      48      54     -51     -63      23
      81      93     -78     -69      23      96     102     -99    -120      23
     102     114    -105    -108      23      99     117    -120     -21      23
%FLAG EXCLUDED_ATOMS_LIST                                                       
%FORMAT(10I8)                                                                   
       2       3       4       5       6       7      42      43      44      45
       3       4       5       6       7       8      42      43      44      45
      46      47      48       4       5       6       7      42      43      44
      45      46       5       6       7      45      46       6       7       8
      45      46      47      48       7       8       9      41      42      43
      44      45      46      47      48       8       9      10      34      40
      41      46      47      48      49      50       9      10      11      33
      34      35      39      40      41      47      48      49      50      51
      70      10      11      12      24      33      34      40      41      47
      48      49      50      51      66      67      11      12      13      24
      25      26      27      33      34      35      41      49      50      51
      52      53      66      67      12      13      14      23      24      25
      26      27      28      32      33      34      49      50      51      52
      53      66      67      13      14      15      17      23      24      25
      26      27      33      51      52      53      54      61      14      15
      16      17      18      23      24      52      53      54      55      61
      15      16      17      23      52      53      54      55      56      61
      16      17      18      23      54      55      56      17      18      19
      22      23      54      55      56      61      18      19      20      21
      22      23      55      56      57      60      61      19      20      21
      22      23      56      57      58      59      60      61      20      21
      22      23      57      58      59      60      21      22      57      58
      59      60      22      57      58      59      60      23      57      58
      59      60      52      53      54      56      61      25      26      27
      28      29      31      32      33      51      52      53      62      26
      27      28      32      27      28      32      28      29      30      31
      32      62      63      65      29      30      31      32      62      63
      64      30      31      32      62      63      64      65      31      32
      62      63      64      65      32      63      64      65      62      64
      65      34      35      36      40      41      49      50      51      66
      67      68      35      36      37      39      40      41      51      66
      67      68      70      36      37      38      39      40      41      66
      67      68      69      37      38      39      40      41      68      69
      70      38      39      40      68      69      39      40      41      68
      69      70      41      69      70      47      48      49      50      66
      67      68      69      70      43      44      44       0       0       0
      48       0      50      51      51      66      67      53       0      55
      56       0      58      59      60       0       0      63      64      65
       0      67       0       0      70       0
%FLAG HBOND_ACOEF                                                               
%FORMAT(5E16.8)                                                                 

%FLAG HBOND_BCOEF                                                               
%FORMAT(5E16.8)                                                                 

%FLAG HBCUT                                                                     
%FORMAT(5E16.8)                                                                 

%FLAG AMBER_ATOM_TYPE                                                           
%FORMAT(20a4)                                                                   
c3  na  cc  nd  cd  cc  c3  nh  c3  c3  n3  c3  ca  ca  ca  ca  ca  na  cc  cd  
cd  cc  ca  sy  o   o   ca  ca  ca  ca  ca  nb  c3  ca  ca  ca  cg  n1  ca  ca  
ca  h1  h1  h1  h5  h4  h1  h1  h1  h1  h1  h1  h1  ha  ha  ha  h4  ha  ha  h4  
ha  ha  ha  ha  h4  hc  hc  ha  ha  ha  
%FLAG TREE_CHAIN_CLASSIFICATION                                                 
%FORMAT(20a4)                                                                   
BLA BLA BLA BLA BLA BLA BLA BLA BLA BLA BLA BLA BLA BLA BLA BLA BLA BLA BLA BLA 
BLA BLA BLA BLA BLA BLA BLA BLA BLA BLA BLA BLA BLA BLA BLA BLA BLA BLA BLA BLA 
BLA BLA BLA BLA BLA BLA BLA BLA BLA BLA BLA BLA BLA BLA BLA BLA BLA BLA BLA BLA 
BLA BLA BLA BLA BLA BLA BLA BLA BLA BLA 
%FLAG JOIN_ARRAY                                                                
%FORMAT(10I8)                                                                   
       0       0       0       0       0       0       0       0       0       0
       0       0       0       0       0       0       0       0       0       0
       0       0       0       0       0       0       0       0       0       0
       0       0       0       0       0       0       0       0       0       0
       0       0       0       0       0       0       0       0       0       0
       0       0       0       0       0       0       0       0       0       0
       0       0       0       0       0       0       0       0       0       0
%FLAG IROTAT                                                                    
%FORMAT(10I8)                                                                   
       0       0       0       0       0       0       0       0       0       0
       0       0       0       0       0       0       0       0       0       0
       0       0       0       0       0       0       0       0       0       0
       0       0       0       0       0       0       0       0       0       0
       0       0       0       0       0       0       0       0       0       0
       0       0       0       0       0       0       0       0       0       0
       0       0       0       0       0       0       0       0       0       0
%FLAG RADIUS_SET                                                                
%FORMAT(1a80)                                                                   
modified Bondi radii (mbondi)                                                   
%FLAG RADII                                                                     
%FORMAT(5E16.8)                                                                 
  1.70000000E+00  1.55000000E+00  1.70000000E+00  1.55000000E+00  1.70000000E+00
  1.70000000E+00  1.70000000E+00  1.55000000E+00  1.70000000E+00  1.70000000E+00
  1.55000000E+00  1.70000000E+00  1.70000000E+00  1.70000000E+00  1.70000000E+00
  1.70000000E+00  1.70000000E+00  1.55000000E+00  1.70000000E+00  1.70000000E+00
  1.70000000E+00  1.70000000E+00  1.70000000E+00  1.80000000E+00  1.50000000E+00
  1.50000000E+00  1.70000000E+00  1.70000000E+00  1.70000000E+00  1.70000000E+00
  1.70000000E+00  1.55000000E+00  1.70000000E+00  1.70000000E+00  1.70000000E+00
  1.70000000E+00  1.70000000E+00  1.55000000E+00  1.70000000E+00  1.70000000E+00
  1.70000000E+00  1.30000000E+00  1.30000000E+00  1.30000000E+00  1.30000000E+00
  1.30000000E+00  1.30000000E+00  1.30000000E+00  1.30000000E+00  1.30000000E+00
  1.30000000E+00  1.30000000E+00  1.30000000E+00  1.30000000E+00  1.30000000E+00
  1.30000000E+00  1.30000000E+00  1.30000000E+00  1.30000000E+00  1.30000000E+00
  1.30000000E+00  1.30000000E+00  1.30000000E+00  1.30000000E+00  1.30000000E+00
  1.30000000E+00  1.30000000E+00  1.30000000E+00  1.30000000E+00  1.30000000E+00
%FLAG SCREEN                                                                    
%FORMAT(5E16.8)                                                                 
  7.20000000E-01  7.90000000E-01  7.20000000E-01  7.90000000E-01  7.20000000E-01
  7.20000000E-01  7.20000000E-01  7.90000000E-01  7.20000000E-01  7.20000000E-01
  7.90000000E-01  7.20000000E-01  7.20000000E-01  7.20000000E-01  7.20000000E-01
  7.20000000E-01  7.20000000E-01  7.90000000E-01  7.20000000E-01  7.20000000E-01
  7.20000000E-01  7.20000000E-01  7.20000000E-01  9.60000000E-01  8.50000000E-01
  8.50000000E-01  7.20000000E-01  7.20000000E-01  7.20000000E-01  7.20000000E-01
  7.20000000E-01  7.90000000E-01  7.20000000E-01  7.20000000E-01  7.20000000E-01
  7.20000000E-01  7.20000000E-01  7.90000000E-01  7.20000000E-01  7.20000000E-01
  7.20000000E-01  8.50000000E-01  8.50000000E-01  8.50000000E-01  8.50000000E-01
  8.50000000E-01  8.50000000E-01  8.50000000E-01  8.50000000E-01  8.50000000E-01
  8.50000000E-01  8.50000000E-01  8.50000000E-01  8.50000000E-01  8.50000000E-01
  8.50000000E-01  8.50000000E-01  8.50000000E-01  8.50000000E-01  8.50000000E-01
  8.50000000E-01  8.50000000E-01  8.50000000E-01  8.50000000E-01  8.50000000E-01
  8.50000000E-01  8.50000000E-01  8.50000000E-01  8.50000000E-01  8.50000000E-01
%FLAG IPOL                                                                      
%FORMAT(1I8)                                                                    
       0
