MOL
    70
   2.8320000  -1.2880000  -1.6860000   3.0820000   0.1080000  -1.4250000
   4.0690000   0.5840000  -0.6090000   4.0650000   1.8950000  -0.5550000
   3.0340000   2.2810000  -1.3690000   2.4050000   1.1900000  -1.9380000
   1.2580000   1.1240000  -2.8890000  -0.0090000   1.5740000  -2.3140000
  -0.7880000   0.5840000  -1.5580000  -1.0760000   1.1150000  -0.1480000
  -1.6210000   0.0480000   0.7490000  -1.0330000   0.0460000   2.1100000
   0.3350000  -0.6050000   2.1300000   1.4560000   0.1020000   2.5770000
   2.7060000  -0.5110000   2.6040000   2.8540000  -1.8340000   2.1770000
   1.7470000  -2.5590000   1.7120000   1.9010000  -3.9000000   1.2380000
   3.0780000  -4.6270000   1.1790000   2.8270000  -5.8680000   0.6350000
   1.4520000  -5.9240000   0.3450000   0.9080000  -4.7150000   0.7230000
   0.4890000  -1.9370000   1.7040000  -3.2190000  -0.5000000   0.6210000
  -3.3320000  -1.7240000   1.3880000  -3.5690000  -0.4890000  -0.7860000
  -4.2490000   0.7270000   1.4320000  -5.5290000   0.9690000   0.9540000
  -6.2720000   1.9590000   1.5870000  -5.7110000   2.6590000   2.6540000
  -4.4180000   2.3480000   3.0500000  -3.6590000   1.4010000   2.4580000
  -1.9430000   2.3630000  -0.2850000  -1.3480000   3.3350000  -1.2850000
  -1.7750000   4.6760000  -1.2340000  -1.2580000   5.6180000  -2.1210000
  -1.6920000   6.9820000  -2.0610000  -2.0490000   8.0860000  -2.0070000
  -0.3170000   5.2180000  -3.0660000   0.0980000   3.8810000  -3.1260000
  -0.4050000   2.9050000  -2.2510000   2.9490000  -1.4660000  -2.7580000
   1.8180000  -1.5290000  -1.3620000   3.5500000  -1.8990000  -1.1340000
   4.7580000  -0.0620000  -0.0800000   2.7920000   3.3270000  -1.5080000
   1.5140000   1.6800000  -3.7970000   1.1290000   0.0960000  -3.2500000
  -0.2520000  -0.3690000  -1.4880000  -1.7080000   0.3770000  -2.1140000
  -0.1110000   1.4370000   0.2710000  -0.9690000   1.0760000   2.4820000
  -1.6570000  -0.4990000   2.8270000   1.3680000   1.1360000   2.9040000
   3.5720000   0.0480000   2.9500000   3.8520000  -2.2570000   2.2180000
   4.0150000  -4.2230000   1.5300000   3.5610000  -6.6470000   0.4730000
   0.9070000  -6.7540000  -0.0860000  -0.1210000  -4.3910000   0.6580000
  -0.4040000  -2.4570000   1.3670000  -5.9360000   0.4090000   0.1180000
  -7.2820000   2.1840000   1.2540000  -6.2730000   3.4330000   3.1670000
  -3.9480000   2.8730000   3.8780000  -2.9520000   2.1210000  -0.6350000
  -2.0310000   2.8510000   0.6930000  -2.5110000   4.9790000  -0.4910000
   0.0990000   5.9350000  -3.7710000   0.8160000   3.6240000  -3.8990000
