MOL
    29
  -2.5220000   1.0780000  -1.1750000  -1.1570000   0.5310000  -0.7890000
  -0.5660000  -0.2230000  -1.8970000   0.7790000  -0.1800000  -2.1570000
   1.5350000   0.6940000  -1.7370000   1.3350000  -1.2970000  -3.0560000
   2.7890000  -1.0270000  -3.3570000   1.1500000  -2.6680000  -2.4060000
   2.0060000  -2.7490000  -1.1710000   1.3850000  -3.0150000  -0.0010000
   3.2130000  -2.5250000  -1.2480000  -1.2710000  -0.4600000   0.3890000
  -1.5980000   0.0730000   1.5980000  -1.0860000  -1.6720000   0.2590000
  -2.9620000   1.6580000  -0.3570000  -2.4460000   1.7280000  -2.0530000
  -3.2200000   0.2690000  -1.4190000  -0.4880000   1.3470000  -0.4910000
  -1.1440000  -0.9770000  -2.2530000   0.8160000  -1.2470000  -4.0190000
   3.1440000  -1.4720000  -4.2080000   3.3760000  -1.3570000  -2.5610000
   2.9530000  -0.0090000  -3.3890000   1.4750000  -3.4620000  -3.0890000
   0.1010000  -2.8620000  -2.1600000   1.9360000  -3.0860000   0.8470000
   0.3710000  -2.9970000   0.1270000  -1.7450000   1.0620000   1.7580000
  -1.6920000  -0.5470000   2.3940000
