%VERSION  VERSION_STAMP = V0001.000  DATE = 07/11/26  14:39:47                  
%FLAG TITLE                                                                     
%FORMAT(20a4)                                                                   
MOL                                                                             
%FLAG POINTERS                                                                  
%FORMAT(10I8)                                                                   
      29      10      15      13      31      17      58      33       0       0
     144       1      13      17      33      13      26      26      10       0
       0       0       0       0       0       0       0       0      29       0
       0
%FLAG ATOM_NAME                                                                 
%FORMAT(20a4)                                                                   
C1  C2  N1  C3  O1  C4  N2  C5  C6  N3  O2  C7  N4  O3  H1  H2  H3  H4  H5  H6  
H7  H8  H9  H10 H11 H12 H13 H14 H15 
%FLAG CHARGE                                                                    
%FORMAT(5E16.8)                                                                 
 -1.95160833E+00  2.86090110E-01 -8.85421557E+00  1.16640942E+01 -1.03338663E+01
  8.65559250E-01 -1.53176654E+01 -3.50597052E+00  1.19738733E+01 -1.10791584E+01
 -1.23383193E+01  1.17187611E+01 -1.15164936E+01 -1.25023200E+01  1.22149544E+00
  1.22149544E+00  1.22149544E+00  2.14476471E+00  5.74913565E+00  2.21765391E+00
  8.75521381E+00  8.75521381E+00  8.75521381E+00  2.13565356E+00  2.13565356E+00
  6.33224925E+00  6.33224925E+00  6.04980360E+00  6.04980360E+00
%FLAG ATOMIC_NUMBER                                                             
%FORMAT(10I8)                                                                   
       6       6       7       6       8       6       7       6       6       7
       8       6       7       8       1       1       1       1       1       1
       1       1       1       1       1       1       1       1       1
%FLAG MASS                                                                      
%FORMAT(5E16.8)                                                                 
  1.20100000E+01  1.20100000E+01  1.40100000E+01  1.20100000E+01  1.60000000E+01
  1.20100000E+01  1.40100000E+01  1.20100000E+01  1.20100000E+01  1.40100000E+01
  1.60000000E+01  1.20100000E+01  1.40100000E+01  1.60000000E+01  1.00800000E+00
  1.00800000E+00  1.00800000E+00  1.00800000E+00  1.00800000E+00  1.00800000E+00
  1.00800000E+00  1.00800000E+00  1.00800000E+00  1.00800000E+00  1.00800000E+00
  1.00800000E+00  1.00800000E+00  1.00800000E+00  1.00800000E+00
%FLAG ATOM_TYPE_INDEX                                                           
%FORMAT(10I8)                                                                   
       1       1       2       3       4       1       5       1       3       6
       4       3       6       4       7       7       7       8       9      10
       9       9       9       7       7       9       9       9       9
%FLAG NUMBER_EXCLUDED_ATOMS                                                     
%FORMAT(10I8)                                                                   
      11      14      14      14       5      12       8      11       7       5
       4       9       4       3       3       2       1       1       1       5
       2       1       1       1       1       1       1       1       1
%FLAG NONBONDED_PARM_INDEX                                                      
%FORMAT(10I8)                                                                   
       1       2       4       7      11      16      22      29      37      46
       2       3       5       8      12      17      23      30      38      47
       4       5       6       9      13      18      24      31      39      48
       7       8       9      10      14      19      25      32      40      49
      11      12      13      14      15      20      26      33      41      50
      16      17      18      19      20      21      27      34      42      51
      22      23      24      25      26      27      28      35      43      52
      29      30      31      32      33      34      35      36      44      53
      37      38      39      40      41      42      43      44      45      54
      46      47      48      49      50      51      52      53      54      55
%FLAG RESIDUE_LABEL                                                             
%FORMAT(20a4)                                                                   
MOL 
%FLAG RESIDUE_POINTER                                                           
%FORMAT(10I8)                                                                   
       1
%FLAG BOND_FORCE_CONSTANT                                                       
%FORMAT(5E16.8)                                                                 
  2.32500000E+02  3.75900000E+02  2.63800000E+02  2.43200000E+02  3.75900000E+02
  3.56200000E+02  5.27300000E+02  6.52600000E+02  2.22600000E+02  3.86500000E+02
  4.82900000E+02  3.56200000E+02  5.27300000E+02
%FLAG BOND_EQUIL_VALUE                                                          
%FORMAT(5E16.8)                                                                 
  1.53800000E+00  1.09700000E+00  1.46200000E+00  1.52400000E+00  1.09700000E+00
  1.37900000E+00  1.01300000E+00  1.21800000E+00  1.51100000E+00  1.09100000E+00
  1.03000000E+00  1.37900000E+00  1.01300000E+00
%FLAG ANGLE_FORCE_CONSTANT                                                      
%FORMAT(5E16.8)                                                                 
  8.32000000E+01  6.53000000E+01  4.69000000E+01  4.68000000E+01  6.53000000E+01
  4.61000000E+01  8.43000000E+01  8.46000000E+01  8.45000000E+01  6.15000000E+01
  1.13800000E+02  8.43000000E+01  4.87000000E+01  8.26000000E+01  4.74000000E+01
  4.62000000E+01  8.10000000E+01  6.01000000E+01  4.67000000E+01  4.74000000E+01
  4.87000000E+01  1.13800000E+02  4.75000000E+01  3.90000000E+01  4.00000000E+01
  3.90000000E+01
%FLAG ANGLE_EQUIL_VALUE                                                         
%FORMAT(5E16.8)                                                                 
  1.94796281E+00  1.93801443E+00  1.91218355E+00  1.91637234E+00  2.10643878E+00
  2.05390434E+00  2.01027109E+00  2.15024656E+00  1.90345690E+00  1.90031530E+00
  2.14762857E+00  2.01027109E+00  2.05163542E+00  1.93260391E+00  1.89979171E+00
  1.92178286E+00  1.99334139E+00  1.88513093E+00  1.92963685E+00  1.89839544E+00
  2.05163542E+00  2.14762857E+00  1.88879613E+00  1.87762601E+00  1.89019239E+00
  2.05861674E+00
%FLAG DIHEDRAL_FORCE_CONSTANT                                                   
%FORMAT(5E16.8)                                                                 
  1.02000000E+00  1.70000000E-01  1.00000000E-01  0.00000000E+00  7.10000000E-01
  0.00000000E+00  7.40000000E-01  2.70000000E-01  5.50000000E-01  2.50000000E+00
  5.00000000E-01  2.60000000E-01  1.55555556E-01  1.00000000E-01  2.12000000E+00
  0.00000000E+00  6.40000000E-01  3.90000000E-01  2.00000000E+00  8.30000000E-01
  4.00000000E-02  8.00000000E-01  8.00000000E-02  1.09000000E-01  1.10000000E+00
  1.05000000E+01
%FLAG DIHEDRAL_PERIODICITY                                                      
%FORMAT(5E16.8)                                                                 
  1.00000000E+00  3.00000000E+00  4.00000000E+00  2.00000000E+00  2.00000000E+00
  4.00000000E+00  1.00000000E+00  2.00000000E+00  3.00000000E+00  2.00000000E+00
  1.00000000E+00  2.00000000E+00  3.00000000E+00  1.00000000E+00  2.00000000E+00
  2.00000000E+00  1.00000000E+00  2.00000000E+00  1.00000000E+00  1.00000000E+00
  3.00000000E+00  1.00000000E+00  3.00000000E+00  3.00000000E+00  2.00000000E+00
  2.00000000E+00
%FLAG DIHEDRAL_PHASE                                                            
%FORMAT(5E16.8)                                                                 
  3.14159400E+00  0.00000000E+00  3.14159400E+00  0.00000000E+00  3.14159400E+00
  3.14159400E+00  0.00000000E+00  3.14159400E+00  3.14159400E+00  3.14159400E+00
  0.00000000E+00  3.14159400E+00  0.00000000E+00  3.14159400E+00  3.14159400E+00
  3.14159400E+00  0.00000000E+00  3.14159400E+00  0.00000000E+00  0.00000000E+00
  3.14159400E+00  0.00000000E+00  3.14159400E+00  0.00000000E+00  3.14159400E+00
  3.14159400E+00
%FLAG SCEE_SCALE_FACTOR                                                         
%FORMAT(5E16.8)                                                                 
  1.20000000E+00  1.20000000E+00  1.20000000E+00  1.20000000E+00  1.20000000E+00
  1.20000000E+00  1.20000000E+00  1.20000000E+00  1.20000000E+00  1.20000000E+00
  1.20000000E+00  1.20000000E+00  1.20000000E+00  1.20000000E+00  1.20000000E+00
  1.20000000E+00  1.20000000E+00  1.20000000E+00  1.20000000E+00  1.20000000E+00
  1.20000000E+00  1.20000000E+00  1.20000000E+00  1.20000000E+00  0.00000000E+00
  0.00000000E+00
%FLAG SCNB_SCALE_FACTOR                                                         
%FORMAT(5E16.8)                                                                 
  2.00000000E+00  2.00000000E+00  2.00000000E+00  2.00000000E+00  2.00000000E+00
  2.00000000E+00  2.00000000E+00  2.00000000E+00  2.00000000E+00  2.00000000E+00
  2.00000000E+00  2.00000000E+00  2.00000000E+00  2.00000000E+00  2.00000000E+00
  2.00000000E+00  2.00000000E+00  2.00000000E+00  2.00000000E+00  2.00000000E+00
  2.00000000E+00  2.00000000E+00  2.00000000E+00  2.00000000E+00  0.00000000E+00
  0.00000000E+00
%FLAG SOLTY                                                                     
%FORMAT(5E16.8)                                                                 
  0.00000000E+00  0.00000000E+00  0.00000000E+00  0.00000000E+00  0.00000000E+00
  0.00000000E+00  0.00000000E+00  0.00000000E+00  0.00000000E+00  0.00000000E+00
%FLAG LENNARD_JONES_ACOEF                                                       
%FORMAT(5E16.8)                                                                 
  1.02073671E+06  8.48258258E+05  7.01825028E+05  8.43969952E+05  6.99381362E+05
  6.96551276E+05  6.30925504E+05  5.17814271E+05  5.17507491E+05  3.76435470E+05
  1.03317389E+06  8.38605317E+05  8.41448277E+05  5.97349234E+05  9.21619602E+05
  8.46898839E+05  7.02869110E+05  6.99645872E+05  5.21528699E+05  8.51212498E+05
  7.02390584E+05  1.00235148E+05  8.07866982E+04  8.12662403E+04  5.68021765E+04
  8.60730206E+04  8.24082802E+04  7.94617769E+03  6.97998263E+04  5.58085097E+04
  5.63013422E+04  3.86646725E+04  5.73997265E+04  5.72492484E+04  5.22955465E+03
  3.39005767E+03  2.23577481E+03  1.65195713E+03  1.71458823E+03  9.87857350E+02
  1.19134558E+03  1.79123880E+03  9.47421632E+01  5.24570081E+01  1.34728399E-01
  2.19657590E+04  1.70902479E+04  1.74110867E+04  1.12566992E+04  1.55708385E+04
  1.78704361E+04  1.35510742E+03  8.33358592E+02  7.30589786E+00  1.70079100E+02
%FLAG LENNARD_JONES_BCOEF                                                       
%FORMAT(5E16.8)                                                                 
  6.63431737E+02  6.17825399E+02  5.74088001E+02  5.90251928E+02  5.48900066E+02
  5.24668528E+02  5.62969425E+02  5.21008860E+02  4.98871431E+02  4.69350655E+02
  1.20496038E+03  1.10898890E+03  1.06398209E+03  9.88909626E+02  2.05451157E+03
  5.69616872E+02  5.30110783E+02  5.06571509E+02  4.82461401E+02  1.03093849E+03
  4.88972141E+02  1.37787728E+02  1.26366740E+02  1.21392023E+02  1.11953944E+02
  2.30505198E+02  1.17764297E+02  2.57122925E+01  1.14981426E+02  1.05029928E+02
  1.01040256E+02  9.23664132E+01  1.88235752E+02  9.81551552E+01  2.08590256E+01
  1.67944276E+01  1.71355763E+01  1.50468782E+01  1.46824710E+01  1.22938581E+01
  2.25813679E+01  1.44573645E+01  2.33785449E+00  1.73959275E+00  7.34107347E-02
  6.45020662E+01  5.81215296E+01  5.61885732E+01  4.98382106E+01  9.80399772E+01
  5.48397915E+01  1.06181419E+01  8.32679019E+00  6.49206153E-01  3.76172582E+00
%FLAG BONDS_INC_HYDROGEN                                                        
%FORMAT(10I8)                                                                   
       0      42       2       0      45       2       0      48       2       3
      51       5       6      54       7      15      57      10      18      60
      11      18      63      11      18      66      11      21      69       2
      21      72       2      27      75      13      27      78      13      36
      81      13      36      84      13
%FLAG BONDS_WITHOUT_HYDROGEN                                                    
%FORMAT(10I8)                                                                   
       0       3       1       3       6       3       3      33       4       6
       9       6       9      12       8       9      15       4      15      18
       9      15      21       1      21      24       4      24      27      12
      24      30       8      33      36      12      33      39       8
%FLAG ANGLES_INC_HYDROGEN                                                       
%FORMAT(10I8)                                                                   
       0       3      51       3       3       0      42       4       3       0
      45       4       3       0      48       4       3       6      54       6
       6       3      51      10       9       6      54      13       9      15
      57      15      15      18      60      16      15      18      63      16
      15      18      66      16      15      21      69       4      15      21
      72       4      18      15      57      18      21      15      57      19
      24      21      69      20      24      21      72      20      24      27
      75      21      24      27      78      21      33       3      51      23
      33      36      81      21      33      36      84      21      42       0
      45      24      42       0      48      24      45       0      48      24
      60      18      63      25      60      18      66      25      63      18
      66      25      69      21      72      24      75      27      78      26
      81      36      84      26
%FLAG ANGLES_WITHOUT_HYDROGEN                                                   
%FORMAT(10I8)                                                                   
       0       3       6       1       0       3      33       2       3       6
       9       5       3      33      36       7       3      33      39       8
       6       3      33       9       6       9      12      11       6       9
      15      12       9      15      18      14       9      15      21       2
      12       9      15       8      15      21      24       2      18      15
      21      17      21      24      27       7      21      24      30       8
      27      24      30      22      36      33      39      22
%FLAG DIHEDRALS_INC_HYDROGEN                                                    
%FORMAT(10I8)                                                                   
       0       3       6      54       4       3      33      36      81      10
       3      33      36      84      10      42       0       3       6      13
      45       0       3       6      13      48       0       3       6      13
       6       9      15      57      16       9       6       3      51      16
       9      15      18      60      13       9      15      18      63      13
       9      15      18      66      13       9      15      21      69      13
       9      15      21      72      13      12       9       6      54      19
      12       9      -6      54      10      12       9      15      57      16
      15       9       6      54      10      18      15      21      69      13
      18      15      21      72      13      21      15      18      60      13
      21      15      18      63      13      21      15      18      66      13
      21      24      27      75      10      21      24      27      78      10
      24      21      15      57      13      27      24      21      69      16
      27      24      21      72      16      30      24      21      69      20
      30      24     -21      69      21      30      24      21      72      20
      30      24     -21      72      21      30      24      27      75      19
      30      24     -27      75      10      30      24      27      78      19
      30      24     -27      78      10      42       0       3      33      13
      45       0       3      33      13      48       0       3      33      13
      33       3       6      54       4      36      33       3      51      16
      39      33       3      51      22      39      33      -3      51      23
      39      33      36      81      19      39      33     -36      81      10
      39      33      36      84      19      39      33     -36      84      10
      42       0       3      51      13      45       0       3      51      13
      48       0       3      51      13      51       3       6      54       4
      57      15      18      60      24      57      15      18      63      24
      57      15      18      66      24      57      15      21      69      13
      57      15      21      72      13       9       3      -6     -54      25
      24      75     -27     -78      25      33      81     -36     -84      25
%FLAG DIHEDRALS_WITHOUT_HYDROGEN                                                
%FORMAT(10I8)                                                                   
       0       3       6       9       1       0       3      -6       9       2
       0       3      -6       9       3       0       3      33      36       5
       0       3     -33      36       6       0       3      33      39       7
       0       3     -33      39       8       0       3     -33      39       9
       3       6       9      12      10       3       6       9      15      11
       3       6      -9      15      12       6       3      33      36      14
       6       3     -33      36      15       6       3      33      39      16
       6       9      15      18      16       6       9      15      21       5
       6       9     -15      21       6       9       6       3      33      17
       9       6      -3      33      18       9      15      21      24      13
      12       9      15      18      16      12       9      15      21       7
      12       9     -15      21       8      12       9     -15      21       9
      15      21      24      27       5      15      21     -24      27       6
      15      21      24      30       7      15      21     -24      30       8
      15      21     -24      30       9      18      15      21      24      13
      15       6      -9     -12      26      21      27     -24     -30      26
       3      36     -33     -39      26
%FLAG EXCLUDED_ATOMS_LIST                                                       
%FORMAT(10I8)                                                                   
       2       3       4      12      13      14      15      16      17      18
      19       3       4       5       6      12      13      14      15      16
      17      18      19      28      29       4       5       6       7       8
      12      13      14      15      16      17      18      19      20       5
       6       7       8       9      12      18      19      20      21      22
      23      24      25       6       7       8      19      20       7       8
       9      10      11      19      20      21      22      23      24      25
       8       9      20      21      22      23      24      25       9      10
      11      20      21      22      23      24      25      26      27      10
      11      20      24      25      26      27      11      24      25      26
      27      24      25      26      27      13      14      15      16      17
      18      19      28      29      14      18      28      29      18      28
      29      16      17      18      17      18      18      19       0      21
      22      23      24      25      22      23      23       0      25       0
      27       0      29       0
%FLAG HBOND_ACOEF                                                               
%FORMAT(5E16.8)                                                                 

%FLAG HBOND_BCOEF                                                               
%FORMAT(5E16.8)                                                                 

%FLAG HBCUT                                                                     
%FORMAT(5E16.8)                                                                 

%FLAG AMBER_ATOM_TYPE                                                           
%FORMAT(20a4)                                                                   
c3  c3  ns  c   o   c3  nz  c3  c   nt  o   c   nt  o   hc  hc  hc  h1  hn  hx  
hn  hn  hn  hc  hc  hn  hn  hn  hn  
%FLAG TREE_CHAIN_CLASSIFICATION                                                 
%FORMAT(20a4)                                                                   
BLA BLA BLA BLA BLA BLA BLA BLA BLA BLA BLA BLA BLA BLA BLA BLA BLA BLA BLA BLA 
BLA BLA BLA BLA BLA BLA BLA BLA BLA 
%FLAG JOIN_ARRAY                                                                
%FORMAT(10I8)                                                                   
       0       0       0       0       0       0       0       0       0       0
       0       0       0       0       0       0       0       0       0       0
       0       0       0       0       0       0       0       0       0
%FLAG IROTAT                                                                    
%FORMAT(10I8)                                                                   
       0       0       0       0       0       0       0       0       0       0
       0       0       0       0       0       0       0       0       0       0
       0       0       0       0       0       0       0       0       0
%FLAG RADIUS_SET                                                                
%FORMAT(1a80)                                                                   
modified Bondi radii (mbondi)                                                   
%FLAG RADII                                                                     
%FORMAT(5E16.8)                                                                 
  1.70000000E+00  1.70000000E+00  1.55000000E+00  1.70000000E+00  1.50000000E+00
  1.70000000E+00  1.55000000E+00  1.70000000E+00  1.70000000E+00  1.55000000E+00
  1.50000000E+00  1.70000000E+00  1.55000000E+00  1.50000000E+00  1.30000000E+00
  1.30000000E+00  1.30000000E+00  1.30000000E+00  1.30000000E+00  1.30000000E+00
  1.30000000E+00  1.30000000E+00  1.30000000E+00  1.30000000E+00  1.30000000E+00
  1.30000000E+00  1.30000000E+00  1.30000000E+00  1.30000000E+00
%FLAG SCREEN                                                                    
%FORMAT(5E16.8)                                                                 
  7.20000000E-01  7.20000000E-01  7.90000000E-01  7.20000000E-01  8.50000000E-01
  7.20000000E-01  7.90000000E-01  7.20000000E-01  7.20000000E-01  7.90000000E-01
  8.50000000E-01  7.20000000E-01  7.90000000E-01  8.50000000E-01  8.50000000E-01
  8.50000000E-01  8.50000000E-01  8.50000000E-01  8.50000000E-01  8.50000000E-01
  8.50000000E-01  8.50000000E-01  8.50000000E-01  8.50000000E-01  8.50000000E-01
  8.50000000E-01  8.50000000E-01  8.50000000E-01  8.50000000E-01
%FLAG IPOL                                                                      
%FORMAT(1I8)                                                                    
       0
