%VERSION  VERSION_STAMP = V0001.000  DATE = 07/11/26  14:42:28                  
%FLAG TITLE                                                                     
%FORMAT(20a4)                                                                   
MOL                                                                             
%FLAG POINTERS                                                                  
%FORMAT(10I8)                                                                   
      34      12      17      17      37      20      51      26       0       0
     161       1      17      20      26      17      30      13      14       0
       0       0       0       0       0       0       0       0      34       0
       0
%FLAG ATOM_NAME                                                                 
%FORMAT(20a4)                                                                   
C1  N1  C2  N2  C3  N3  N4  C4  C5  S1  C6  C7  N5  C8  N6  C9  C10 H1  H2  H3  
H4  H5  H6  H7  H8  H9  H10 H11 H12 H13 H14 H15 H16 H17 
%FLAG CHARGE                                                                    
%FORMAT(5E16.8)                                                                 
 -1.16622720E-01 -6.81696243E+00  9.38995119E+00 -4.55921946E+00  3.61712655E+00
 -4.69770894E+00 -6.90989616E+00  4.42801890E-01 -9.89470890E-01 -4.70499786E+00
  7.83558900E-01 -3.93419457E+00 -5.37375627E+00  7.69709952E+00 -1.26462762E+01
  4.62117528E+00 -2.33974332E+00  1.57987341E+00  1.57987341E+00  1.57987341E+00
  5.89855851E+00  6.70033971E+00  6.24478221E+00  1.38853926E+00  1.38853926E+00
  1.94431941E+00  1.94431941E+00  2.01720861E+00  2.01720861E+00  5.89855851E+00
  1.55071773E+00  9.96759810E-01  9.96759810E-01  9.96759810E-01
%FLAG ATOMIC_NUMBER                                                             
%FORMAT(10I8)                                                                   
       6       7       6       7       6       7       7       6       6      16
       6       6       7       6       7       6       6       1       1       1
       1       1       1       1       1       1       1       1       1       1
       1       1       1       1
%FLAG MASS                                                                      
%FORMAT(5E16.8)                                                                 
  1.20100000E+01  1.40100000E+01  1.20100000E+01  1.40100000E+01  1.20100000E+01
  1.40100000E+01  1.40100000E+01  1.20100000E+01  1.20100000E+01  3.20600000E+01
  1.20100000E+01  1.20100000E+01  1.40100000E+01  1.20100000E+01  1.40100000E+01
  1.20100000E+01  1.20100000E+01  1.00800000E+00  1.00800000E+00  1.00800000E+00
  1.00800000E+00  1.00800000E+00  1.00800000E+00  1.00800000E+00  1.00800000E+00
  1.00800000E+00  1.00800000E+00  1.00800000E+00  1.00800000E+00  1.00800000E+00
  1.00800000E+00  1.00800000E+00  1.00800000E+00  1.00800000E+00
%FLAG ATOM_TYPE_INDEX                                                           
%FORMAT(10I8)                                                                   
       1       2       3       2       4       5       2       1       1       6
       1       3       7       3       8       3       1       9       9       9
      10      10      10       9       9       9       9       9       9      10
      11      12      12      12
%FLAG NUMBER_EXCLUDED_ATOMS                                                     
%FORMAT(10I8)                                                                   
       8      11      14       7       3       1      10       8      10      10
      11      12       8       5       7       8       3       3       2       1
       1       1       2       3       2       1       1       1       1       1
       1       2       1       1
%FLAG NONBONDED_PARM_INDEX                                                      
%FORMAT(10I8)                                                                   
       1       2       4       7      11      16      22      29      37      46
      56      67       2       3       5       8      12      17      23      30
      38      47      57      68       4       5       6       9      13      18
      24      31      39      48      58      69       7       8       9      10
      14      19      25      32      40      49      59      70      11      12
      13      14      15      20      26      33      41      50      60      71
      16      17      18      19      20      21      27      34      42      51
      61      72      22      23      24      25      26      27      28      35
      43      52      62      73      29      30      31      32      33      34
      35      36      44      53      63      74      37      38      39      40
      41      42      43      44      45      54      64      75      46      47
      48      49      50      51      52      53      54      55      65      76
      56      57      58      59      60      61      62      63      64      65
      66      77      67      68      69      70      71      72      73      74
      75      76      77      78
%FLAG RESIDUE_LABEL                                                             
%FORMAT(20a4)                                                                   
MOL 
%FLAG RESIDUE_POINTER                                                           
%FORMAT(10I8)                                                                   
       1
%FLAG BOND_FORCE_CONSTANT                                                       
%FORMAT(5E16.8)                                                                 
  2.61800000E+02  3.75900000E+02  4.14200000E+02  5.29500000E+02  4.09000000E+02
  8.91500000E+02  2.32500000E+02  1.83000000E+02  2.62600000E+02  3.54500000E+02
  4.16100000E+02  5.35100000E+02  4.50700000E+02  4.03500000E+02  3.69100000E+02
  2.62600000E+02  3.75900000E+02
%FLAG BOND_EQUIL_VALUE                                                          
%FORMAT(5E16.8)                                                                 
  1.46400000E+00  1.09700000E+00  1.33900000E+00  1.01200000E+00  1.34200000E+00
  1.15300000E+00  1.53800000E+00  1.83900000E+00  1.50200000E+00  1.38000000E+00
  1.37300000E+00  1.01000000E+00  1.31700000E+00  1.08200000E+00  1.36900000E+00
  1.50200000E+00  1.09700000E+00
%FLAG ANGLE_FORCE_CONSTANT                                                      
%FORMAT(5E16.8)                                                                 
  6.47000000E+01  4.64000000E+01  6.12000000E+01  1.12600000E+02  4.92000000E+01
  6.73000000E+01  9.82000000E+01  4.99000000E+01  8.35000000E+01  6.32000000E+01
  4.69000000E+01  7.11000000E+01  4.25000000E+01  6.34000000E+01  8.24000000E+01
  6.68000000E+01  4.79000000E+01  7.05000000E+01  4.71000000E+01  9.11000000E+01
  6.68000000E+01  9.27000000E+01  1.15500000E+02  6.12000000E+01  7.39000000E+01
  6.25000000E+01  8.32000000E+01  4.77000000E+01  3.88000000E+01  3.90000000E+01
%FLAG ANGLE_EQUIL_VALUE                                                         
%FORMAT(5E16.8)                                                                 
  2.18969102E+00  2.02440827E+00  1.91619781E+00  2.09683946E+00  2.11446730E+00
  2.15286456E+00  3.10057875E+00  2.04901742E+00  1.92789152E+00  1.92457539E+00
  1.91218355E+00  1.73206549E+00  1.89822091E+00  1.94010883E+00  2.14204351E+00
  2.08479669E+00  1.91357981E+00  1.91811767E+00  2.19038915E+00  1.94866095E+00
  2.08479669E+00  1.86732857E+00  1.95860933E+00  2.12144862E+00  1.84114862E+00
  2.19073822E+00  2.11097664E+00  1.92841512E+00  1.89298492E+00  1.87762601E+00
%FLAG DIHEDRAL_FORCE_CONSTANT                                                   
%FORMAT(5E16.8)                                                                 
  6.75000000E-01  0.00000000E+00  0.00000000E+00  2.48000000E-01  1.55555556E-01
  1.67000000E-01  3.33333333E-01  2.20000000E-01  0.00000000E+00  1.70000000E+00
  4.00000000E+00  4.75000000E+00  1.10000000E+00
%FLAG DIHEDRAL_PERIODICITY                                                      
%FORMAT(5E16.8)                                                                 
  2.00000000E+00  2.00000000E+00  2.00000000E+00  2.00000000E+00  3.00000000E+00
  3.00000000E+00  3.00000000E+00  3.00000000E+00  3.00000000E+00  2.00000000E+00
  2.00000000E+00  2.00000000E+00  2.00000000E+00
%FLAG DIHEDRAL_PHASE                                                            
%FORMAT(5E16.8)                                                                 
  3.14159400E+00  0.00000000E+00  3.14159400E+00  3.14159400E+00  0.00000000E+00
  0.00000000E+00  0.00000000E+00  0.00000000E+00  0.00000000E+00  3.14159400E+00
  3.14159400E+00  3.14159400E+00  3.14159400E+00
%FLAG SCEE_SCALE_FACTOR                                                         
%FORMAT(5E16.8)                                                                 
  1.20000000E+00  1.20000000E+00  1.20000000E+00  1.20000000E+00  1.20000000E+00
  1.20000000E+00  1.20000000E+00  1.20000000E+00  1.20000000E+00  1.20000000E+00
  1.20000000E+00  1.20000000E+00  0.00000000E+00
%FLAG SCNB_SCALE_FACTOR                                                         
%FORMAT(5E16.8)                                                                 
  2.00000000E+00  2.00000000E+00  2.00000000E+00  2.00000000E+00  2.00000000E+00
  2.00000000E+00  2.00000000E+00  2.00000000E+00  2.00000000E+00  2.00000000E+00
  2.00000000E+00  2.00000000E+00  0.00000000E+00
%FLAG SOLTY                                                                     
%FORMAT(5E16.8)                                                                 
  0.00000000E+00  0.00000000E+00  0.00000000E+00  0.00000000E+00  0.00000000E+00
  0.00000000E+00  0.00000000E+00  0.00000000E+00  0.00000000E+00  0.00000000E+00
  0.00000000E+00  0.00000000E+00  0.00000000E+00  0.00000000E+00
%FLAG LENNARD_JONES_ACOEF                                                       
%FORMAT(5E16.8)                                                                 
  1.02073671E+06  9.89136215E+05  9.54886922E+05  8.43969952E+05  8.15700858E+05
  6.96551276E+05  1.43239677E+06  1.39155377E+06  1.18640578E+06  2.00671338E+06
  8.25619280E+05  7.96888554E+05  6.80770393E+05  1.16165080E+06  6.65027384E+05
  2.09089895E+06  2.03458349E+06  1.73376823E+06  2.92607619E+06  1.69857439E+06
  4.26366419E+06  9.96191545E+05  9.59384716E+05  8.20152428E+05  1.40372344E+06
  8.00550675E+05  2.05449504E+06  9.62429652E+05  9.31115275E+05  9.01905150E+05
  7.69642101E+05  1.30700124E+06  7.52793431E+05  1.90820499E+06  9.08092643E+05
  8.49322032E+05  6.97998263E+04  6.52595638E+04  5.63013422E+04  1.00303788E+05
  5.43787653E+04  1.48672098E+05  6.42436358E+04  6.34160397E+04  3.39005767E+03
  2.23577481E+03  1.94284817E+03  1.71458823E+03  3.37137075E+03  1.61327254E+03
  5.15374979E+03  1.82491629E+03  2.01475241E+03  5.24570081E+01  1.34728399E-01
  6.46910138E+04  6.05484928E+04  5.22195041E+04  9.28958515E+04  5.04557707E+04
  1.37628606E+05  5.96470418E+04  5.87815925E+04  3.17496391E+03  5.02830284E+01
  2.97255425E+03  1.00235148E+05  9.44129241E+04  8.12662403E+04  1.43334551E+05
  7.86991059E+04  2.11783234E+05  9.33839501E+04  9.11435380E+04  5.22955465E+03
  9.47421632E+01  4.88692384E+03  7.94617769E+03
%FLAG LENNARD_JONES_BCOEF                                                       
%FORMAT(5E16.8)                                                                 
  6.63431737E+02  7.14570130E+02  7.68192761E+02  5.90251928E+02  6.34916791E+02
  5.24668528E+02  8.66911122E+02  9.34911141E+02  7.71958727E+02  1.13185062E+03
  5.99411656E+02  6.44334664E+02  5.32561965E+02  7.84289859E+02  5.40444287E+02
  1.20800124E+03  1.30381522E+03  1.07629402E+03  1.57633023E+03  1.09380282E+03
  2.19459223E+03  7.68900328E+02  8.25605255E+02  6.82622272E+02  1.00679935E+03
  6.92450812E+02  1.40479403E+03  8.86629877E+02  6.12468585E+02  6.59538202E+02
  5.44830041E+02  8.00430491E+02  5.53242961E+02  1.11546536E+03  7.09588248E+02
  5.65406768E+02  1.14981426E+02  1.21646616E+02  1.01040256E+02  1.52041700E+02
  1.01955600E+02  2.13489607E+02  1.29412081E+02  1.05935811E+02  1.67944276E+01
  1.71355763E+01  1.74775900E+01  1.46824710E+01  2.32108730E+01  1.46229317E+01
  3.30984635E+01  1.81620725E+01  1.57231024E+01  1.73959275E+00  7.34107347E-02
  1.03827676E+02  1.09905709E+02  9.12729468E+01  1.37243835E+02  9.21175698E+01
  1.92666848E+02  1.16962018E+02  9.56653235E+01  1.52447987E+01  1.59752321E+00
  1.38359132E+01  1.37787728E+02  1.46316625E+02  1.21392023E+02  1.81752124E+02
  1.22653886E+02  2.54804909E+02  1.56025608E+02  1.27000718E+02  2.08590256E+01
  2.33785449E+00  1.89134207E+01  2.57122925E+01
%FLAG BONDS_INC_HYDROGEN                                                        
%FORMAT(10I8)                                                                   
       0      51       2       0      54       2       0      57       2       3
      60       4       9      63       4      18      66       4      21      69
       2      21      72       2      24      75       2      24      78       2
      30      81       2      30      84       2      36      87      12      39
      90      14      48      93      17      48      96      17      48      99
      17
%FLAG BONDS_WITHOUT_HYDROGEN                                                    
%FORMAT(10I8)                                                                   
       0       3       1       3       6       3       6       9       3       6
      18       3       9      12       5      12      15       6      18      21
       1      21      24       7      24      27       8      27      30       8
      30      33       9      33      36      10      33      45      11      36
      39      10      39      42      13      42      45      15      45      48
      16
%FLAG ANGLES_INC_HYDROGEN                                                       
%FORMAT(10I8)                                                                   
       0       3      60       2       3       0      51       3       3       0
      54       3       3       0      57       3       6       3      60       5
       6       9      63       5       6      18      66       5      12       9
      63       8      18      21      69       3      18      21      72       3
      21      18      66       2      21      24      75      11      21      24
      78      11      24      21      69      11      24      21      72      11
      27      24      75      13      27      24      78      13      27      30
      81      13      27      30      84      13      33      30      81      17
      33      30      84      17      33      36      87      19      36      39
      90      24      39      36      87      19      42      39      90      26
      45      48      93      28      45      48      96      28      45      48
      99      28      51       0      54      29      51       0      57      29
      54       0      57      29      69      21      72      29      75      24
      78      29      81      30      84      29      93      48      96      30
      93      48      99      30      96      48      99      30
%FLAG ANGLES_WITHOUT_HYDROGEN                                                   
%FORMAT(10I8)                                                                   
       0       3       6       1       3       6       9       4       3       6
      18       4       6       9      12       6       6      18      21       1
       9       6      18       4       9      12      15       7      18      21
      24       9      21      24      27      10      24      27      30      12
      27      30      33      14      30      33      36      15      30      33
      45      16      33      36      39      18      33      45      42      20
      33      45      48      21      36      33      45      22      36      39
      42      23      39      42      45      25      42      45      48      27
%FLAG DIHEDRALS_INC_HYDROGEN                                                    
%FORMAT(10I8)                                                                   
       3       6       9      63       1       3       6      18      66       1
      51       0       3       6       2      54       0       3       6       2
      57       0       3       6       2       6      18      21      69       2
       6      18      21      72       2       9       6       3      60       1
       9       6      18      66       1      15      12       9      63       3
      18       6       3      60       1      18       6       9      63       1
      18      21      24      75       5      18      21      24      78       5
      24      21      18      66       2      24      27      30      81       8
      24      27      30      84       8      27      24      21      69       5
      27      24      21      72       5      30      27      24      75       8
      30      27      24      78       8      30      33      36      87      10
      33      36      39      90      10      33      45      48      93       9
      33      45      48      96       9      33      45      48      99       9
      36      33      30      81       9      36      33      30      84       9
      42      39      36      87      10      42      45      48      93       9
      42      45      48      96       9      42      45      48      99       9
      45      42      39      90      12      45      33      30      81       9
      45      33      30      84       9      45      33      36      87      10
      51       0       3      60       2      54       0       3      60       2
      57       0       3      60       2      66      18      21      69       2
      66      18      21      72       2      69      21      24      75       5
      69      21      24      78       5      72      21      24      75       5
      72      21      24      78       5      87      36      39      90      10
       0       6      -3     -60      13      12       6      -9     -63      13
      21       6     -18     -66      13      33      39     -36     -87      13
      90      36     -39     -42      13
%FLAG DIHEDRALS_WITHOUT_HYDROGEN                                                
%FORMAT(10I8)                                                                   
       0       3       6       9       1       0       3       6      18       1
       3       6       9      12       1       3       6      18      21       1
       6       9      12      15       3       6      18      21      24       4
       9       6      18      21       1      12       9       6      18       1
      18      21      24      27       5      21      24      27      30       6
      24      27      30      33       7      27      30      33      36       9
      27      30      33      45       9      30      33      36      39      10
      30      33      45      42      11      30      33      45      48      11
      33      36     -39      42      10      33      45     -42      39      12
      36      33     -45      42      11      36      33      45      48      11
      36      39     -42      45      12      39      36     -33      45      10
      39      42      45      48      12       3       9      -6     -18      13
      30      45     -33     -36      13      48      33     -45     -42      13
%FLAG EXCLUDED_ATOMS_LIST                                                       
%FORMAT(10I8)                                                                   
       2       3       4       7      18      19      20      21       3       4
       5       7       8      18      19      20      21      22      23       4
       5       6       7       8       9      18      19      20      21      22
      23      24      25       5       6       7       8      21      22      23
       6       7      22      22       8       9      10      21      22      23
      24      25      26      27       9      10      11      23      24      25
      26      27      10      11      12      23      24      25      26      27
      28      29      11      12      13      16      24      25      26      27
      28      29      12      13      14      15      16      17      26      27
      28      29      30      13      14      15      16      17      28      29
      30      31      32      33      34      14      15      16      17      28
      29      30      31      15      16      17      30      31      16      17
      30      31      32      33      34      17      28      29      30      31
      32      33      34      32      33      34      19      20      21      20
      21      21       0       0      24      25      25      26      27      26
      27      27       0      29       0      31       0      33      34      34
       0
%FLAG HBOND_ACOEF                                                               
%FORMAT(5E16.8)                                                                 

%FLAG HBOND_BCOEF                                                               
%FORMAT(5E16.8)                                                                 

%FLAG HBCUT                                                                     
%FORMAT(5E16.8)                                                                 

%FLAG AMBER_ATOM_TYPE                                                           
%FORMAT(20a4)                                                                   
c3  nu  cz  nu  c1  n1  nu  c3  c3  ss  c3  cc  na  cc  nd  cd  c3  h1  h1  h1  
hn  hn  hn  h1  h1  h1  h1  h1  h1  hn  h5  hc  hc  hc  
%FLAG TREE_CHAIN_CLASSIFICATION                                                 
%FORMAT(20a4)                                                                   
BLA BLA BLA BLA BLA BLA BLA BLA BLA BLA BLA BLA BLA BLA BLA BLA BLA BLA BLA BLA 
BLA BLA BLA BLA BLA BLA BLA BLA BLA BLA BLA BLA BLA BLA 
%FLAG JOIN_ARRAY                                                                
%FORMAT(10I8)                                                                   
       0       0       0       0       0       0       0       0       0       0
       0       0       0       0       0       0       0       0       0       0
       0       0       0       0       0       0       0       0       0       0
       0       0       0       0
%FLAG IROTAT                                                                    
%FORMAT(10I8)                                                                   
       0       0       0       0       0       0       0       0       0       0
       0       0       0       0       0       0       0       0       0       0
       0       0       0       0       0       0       0       0       0       0
       0       0       0       0
%FLAG RADIUS_SET                                                                
%FORMAT(1a80)                                                                   
modified Bondi radii (mbondi)                                                   
%FLAG RADII                                                                     
%FORMAT(5E16.8)                                                                 
  1.70000000E+00  1.55000000E+00  1.70000000E+00  1.55000000E+00  1.70000000E+00
  1.55000000E+00  1.55000000E+00  1.70000000E+00  1.70000000E+00  1.80000000E+00
  1.70000000E+00  1.70000000E+00  1.55000000E+00  1.70000000E+00  1.55000000E+00
  1.70000000E+00  1.70000000E+00  1.30000000E+00  1.30000000E+00  1.30000000E+00
  1.30000000E+00  1.30000000E+00  1.30000000E+00  1.30000000E+00  1.30000000E+00
  1.30000000E+00  1.30000000E+00  1.30000000E+00  1.30000000E+00  1.30000000E+00
  1.30000000E+00  1.30000000E+00  1.30000000E+00  1.30000000E+00
%FLAG SCREEN                                                                    
%FORMAT(5E16.8)                                                                 
  7.20000000E-01  7.90000000E-01  7.20000000E-01  7.90000000E-01  7.20000000E-01
  7.90000000E-01  7.90000000E-01  7.20000000E-01  7.20000000E-01  9.60000000E-01
  7.20000000E-01  7.20000000E-01  7.90000000E-01  7.20000000E-01  7.90000000E-01
  7.20000000E-01  7.20000000E-01  8.50000000E-01  8.50000000E-01  8.50000000E-01
  8.50000000E-01  8.50000000E-01  8.50000000E-01  8.50000000E-01  8.50000000E-01
  8.50000000E-01  8.50000000E-01  8.50000000E-01  8.50000000E-01  8.50000000E-01
  8.50000000E-01  8.50000000E-01  8.50000000E-01  8.50000000E-01
%FLAG IPOL                                                                      
%FORMAT(1I8)                                                                    
       0
