MOL
    34
  -1.8020000   1.3210000  -4.1170000  -1.8080000   0.2270000  -3.1420000
  -0.8240000  -0.1470000  -2.2850000   0.4310000   0.3410000  -2.2750000
   1.0050000   1.2180000  -3.2520000   1.4560000   1.9250000  -4.0480000
  -1.1150000  -1.0930000  -1.3490000  -2.4500000  -1.5800000  -0.9420000
  -2.4960000  -1.9820000   0.5420000  -1.3700000  -3.3720000   0.9210000
  -0.2010000  -2.5670000   2.0870000   0.8090000  -1.8350000   1.2860000
   1.8450000  -2.4750000   0.6420000   2.4390000  -1.5590000  -0.1780000
   1.8500000  -0.3840000  -0.0860000   0.9700000  -0.4980000   0.9730000
   0.2470000   0.6900000   1.4870000  -2.8260000   1.4530000  -4.4780000
  -1.1730000   1.0540000  -4.9690000  -1.4970000   2.2520000  -3.6350000
  -2.6650000  -0.3080000  -3.0970000   1.0620000   0.1030000  -1.5060000
  -0.3250000  -1.4690000  -0.8370000  -2.7130000  -2.4250000  -1.5870000
  -3.1760000  -0.7740000  -1.0910000  -2.2600000  -1.1190000   1.1710000
  -3.5120000  -2.3040000   0.7930000  -0.7420000  -1.9150000   2.7780000
   0.2810000  -3.3520000   2.6800000   2.0790000  -3.4590000   0.7080000
   3.2720000  -1.8130000  -0.8230000  -0.6470000   0.8810000   0.8870000
  -0.0550000   0.5470000   2.5290000   0.8870000   1.5760000   1.4400000
