%VERSION  VERSION_STAMP = V0001.000  DATE = 07/11/26  14:12:46                  
%FLAG TITLE                                                                     
%FORMAT(20a4)                                                                   
MOL                                                                             
%FLAG POINTERS                                                                  
%FORMAT(10I8)                                                                   
      70      12      34      41      81      56     149      90       0       0
     407       1      41      56      90      25      48      19      16       0
       0       0       0       0       0       0       0       0      70       0
       0
%FLAG ATOM_NAME                                                                 
%FORMAT(20a4)                                                                   
C1  C2  C3  C4  C5  N1  N2  N3  N4  C6  C7  C8  C9  C10 C11 C12 N5  C13 N6  C14 
N7  C15 C16 N8  C17 C18 C19 N9  C20 C21 C22 C23 C24 C25 C26 C27 H1  H2  H3  H4  
H5  H6  H7  H8  H9  H10 H11 H12 H13 H14 H15 H16 H17 H18 H19 H20 H21 H22 H23 H24 
H25 H26 H27 H28 H29 H30 H31 H32 H33 H34 
%FLAG CHARGE                                                                    
%FORMAT(5E16.8)                                                                 
 -1.84045230E+00 -2.27778750E+00 -2.13200910E+00 -2.77525629E+00  1.59627348E+00
 -4.26401820E-01 -2.76614514E+00 -3.09779100E-01 -7.07025240E+00  5.49949014E+00
  3.39845895E+00 -2.97570159E+00 -2.01356415E+00 -1.77667425E+00 -1.17169389E+00
  1.79671878E+00 -1.41040602E+00  7.60598802E+00 -1.21360518E+01  9.47377377E+00
 -9.81817524E+00 -1.77667425E+00 -2.01356415E+00 -1.22526745E+01  2.21947614E+00
 -2.68596702E+00  3.29459184E+00 -1.40421044E+01  3.08867985E+00 -1.60174017E+00
 -1.53796212E+00 -1.60174017E+00  3.49503714E+00  1.01680434E+00 -2.13200910E+00
 -2.27778750E+00  2.78801190E+00  2.74245615E+00  2.56023315E+00  1.81676331E+00
  1.81676331E+00  2.21765391E+00  2.66956695E+00  3.06134640E+00  1.51609536E+00
  1.51609536E+00  1.40493933E+00  1.45960623E+00  3.06134640E+00  2.66956695E+00
  8.36039124E+00  1.91698596E+00  1.91698596E+00  1.65276261E+00  1.65276261E+00
  1.43409501E+00  1.43409501E+00  1.27556100E-02  1.13342706E+00  1.13342706E+00
  1.21542741E+00  1.21542741E+00  1.13342706E+00  1.13342706E+00  1.55253996E+00
  1.55253996E+00  1.73476296E+00  1.73476296E+00  2.56023315E+00  2.74245615E+00
%FLAG ATOMIC_NUMBER                                                             
%FORMAT(10I8)                                                                   
       6       6       6       6       6       7       7       7       7       6
       6       6       6       6       6       6       7       6       7       6
       7       6       6       7       6       6       6       7       6       6
       6       6       6       6       6       6       1       1       1       1
       1       1       1       1       1       1       1       1       1       1
       1       1       1       1       1       1       1       1       1       1
       1       1       1       1       1       1       1       1       1       1
%FLAG MASS                                                                      
%FORMAT(5E16.8)                                                                 
  1.20100000E+01  1.20100000E+01  1.20100000E+01  1.20100000E+01  1.20100000E+01
  1.40100000E+01  1.40100000E+01  1.40100000E+01  1.40100000E+01  1.20100000E+01
  1.20100000E+01  1.20100000E+01  1.20100000E+01  1.20100000E+01  1.20100000E+01
  1.20100000E+01  1.40100000E+01  1.20100000E+01  1.40100000E+01  1.20100000E+01
  1.40100000E+01  1.20100000E+01  1.20100000E+01  1.40100000E+01  1.20100000E+01
  1.20100000E+01  1.20100000E+01  1.40100000E+01  1.20100000E+01  1.20100000E+01
  1.20100000E+01  1.20100000E+01  1.20100000E+01  1.20100000E+01  1.20100000E+01
  1.20100000E+01  1.00800000E+00  1.00800000E+00  1.00800000E+00  1.00800000E+00
  1.00800000E+00  1.00800000E+00  1.00800000E+00  1.00800000E+00  1.00800000E+00
  1.00800000E+00  1.00800000E+00  1.00800000E+00  1.00800000E+00  1.00800000E+00
  1.00800000E+00  1.00800000E+00  1.00800000E+00  1.00800000E+00  1.00800000E+00
  1.00800000E+00  1.00800000E+00  1.00800000E+00  1.00800000E+00  1.00800000E+00
  1.00800000E+00  1.00800000E+00  1.00800000E+00  1.00800000E+00  1.00800000E+00
  1.00800000E+00  1.00800000E+00  1.00800000E+00  1.00800000E+00  1.00800000E+00
%FLAG ATOM_TYPE_INDEX                                                           
%FORMAT(10I8)                                                                   
       1       1       1       1       2       3       4       4       4       1
       2       1       1       1       1       2       3       1       4       1
       4       1       1       5       2       2       2       6       2       2
       2       2       2       2       1       1       7       7       7       8
       8       9       7       7       8       8      10      10       7       7
      11       9       9      12      12       8       8       8      12      12
      12      12      12      12       8       8       9       9       7       7
%FLAG NUMBER_EXCLUDED_ATOMS                                                     
%FORMAT(10I8)                                                                   
      10       9      11      12      12      11       6       3       5      11
      18      14      10      10      12      12       9       7       4       3
       4       6       5      16      15      12      15      19      16      10
       8       8       9       8       7       4       2       1       1       1
       1       1       1       1       1       1       1       1       1       1
       4       3       2       3       2       1       1       4       3       2
       3       2       1       1       3       2       1       1       1       1
%FLAG NONBONDED_PARM_INDEX                                                      
%FORMAT(10I8)                                                                   
       1       2       4       7      11      16      22      29      37      46
      56      67       2       3       5       8      12      17      23      30
      38      47      57      68       4       5       6       9      13      18
      24      31      39      48      58      69       7       8       9      10
      14      19      25      32      40      49      59      70      11      12
      13      14      15      20      26      33      41      50      60      71
      16      17      18      19      20      21      27      34      42      51
      61      72      22      23      24      25      26      27      28      35
      43      52      62      73      29      30      31      32      33      34
      35      36      44      53      63      74      37      38      39      40
      41      42      43      44      45      54      64      75      46      47
      48      49      50      51      52      53      54      55      65      76
      56      57      58      59      60      61      62      63      64      65
      66      77      67      68      69      70      71      72      73      74
      75      76      77      78
%FLAG RESIDUE_LABEL                                                             
%FORMAT(20a4)                                                                   
MOL 
%FLAG RESIDUE_POINTER                                                           
%FORMAT(10I8)                                                                   
       1
%FLAG BOND_FORCE_CONSTANT                                                       
%FORMAT(5E16.8)                                                                 
  3.78600000E+02  3.95700000E+02  2.50300000E+02  2.62900000E+02  3.75900000E+02
  3.00500000E+02  3.54500000E+02  3.74700000E+02  2.90700000E+02  4.50700000E+02
  2.62600000E+02  2.22600000E+02  3.86500000E+02  4.03500000E+02  3.69100000E+02
  4.50700000E+02  4.03700000E+02  4.82900000E+02  2.32500000E+02  3.75900000E+02
  2.61200000E+02  2.68400000E+02  2.17200000E+02  3.79300000E+02  3.79300000E+02
%FLAG BOND_EQUIL_VALUE                                                          
%FORMAT(5E16.8)                                                                 
  1.39800000E+00  1.08600000E+00  1.51600000E+00  1.46300000E+00  1.09700000E+00
  1.35600000E+00  1.38000000E+00  1.29900000E+00  1.36500000E+00  1.31700000E+00
  1.50200000E+00  1.51100000E+00  1.09100000E+00  1.08200000E+00  1.36900000E+00
  1.31700000E+00  1.08200000E+00  1.03000000E+00  1.53800000E+00  1.09700000E+00
  1.46500000E+00  1.45700000E+00  1.55800000E+00  1.09500000E+00  1.09500000E+00
%FLAG ANGLE_FORCE_CONSTANT                                                      
%FORMAT(5E16.8)                                                                 
  6.88000000E+01  4.87000000E+01  6.56000000E+01  8.33000000E+01  4.75000000E+01
  8.24000000E+01  6.37000000E+01  6.15000000E+01  1.16800000E+02  1.15500000E+02
  8.24000000E+01  8.81000000E+01  1.13600000E+02  9.17000000E+01  8.39000000E+01
  6.57000000E+01  8.15000000E+01  4.76000000E+01  6.45000000E+01  4.62000000E+01
  8.17000000E+01  4.71000000E+01  6.12000000E+01  9.38000000E+01  7.39000000E+01
  6.25000000E+01  1.14200000E+02  6.13000000E+01  6.25000000E+01  6.01000000E+01
  8.10000000E+01  6.49000000E+01  4.68000000E+01  4.67000000E+01  8.33000000E+01
  4.69000000E+01  6.57000000E+01  6.57000000E+01  6.12000000E+01  8.09000000E+01
  6.14000000E+01  7.19000000E+01  4.52000000E+01  4.56000000E+01  3.88000000E+01
  3.88000000E+01  3.90000000E+01  3.88000000E+01
%FLAG ANGLE_EQUIL_VALUE                                                         
%FORMAT(5E16.8)                                                                 
  2.09474507E+00  2.09230160E+00  2.10783504E+00  1.96995397E+00  1.91218355E+00
  2.09753759E+00  2.20714432E+00  1.89856997E+00  1.85423859E+00  1.95860933E+00
  2.14204351E+00  1.96105279E+00  1.94534482E+00  1.88181481E+00  2.13645845E+00
  1.97012850E+00  2.01725241E+00  1.93749083E+00  1.91392888E+00  1.92178286E+00
  1.98618554E+00  1.94517029E+00  2.12144862E+00  1.81200161E+00  1.84114862E+00
  2.19073822E+00  2.02161574E+00  2.14535964E+00  2.19073822E+00  1.88513093E+00
  1.99334139E+00  1.94621748E+00  1.91637234E+00  1.92963685E+00  1.93801443E+00
  1.91218355E+00  1.97012850E+00  1.96087826E+00  1.91776860E+00  2.03505478E+00
  1.92265553E+00  1.54356985E+00  2.00294071E+00  1.97518996E+00  1.89298492E+00
  1.91549968E+00  1.87762601E+00  1.90188610E+00
%FLAG DIHEDRAL_FORCE_CONSTANT                                                   
%FORMAT(5E16.8)                                                                 
  3.62500000E+00  0.00000000E+00  4.80000000E+00  1.70000000E+00  4.00000000E+00
  4.75000000E+00  0.00000000E+00  1.55555556E-01  0.00000000E+00  1.56000000E-01
  7.00000000E-01  2.10000000E-01  3.00000000E-01  2.80000000E-01  5.80000000E-01
  2.25000000E-01  1.00000000E-01  1.09000000E-01  1.10000000E+00
%FLAG DIHEDRAL_PERIODICITY                                                      
%FORMAT(5E16.8)                                                                 
  2.00000000E+00  2.00000000E+00  2.00000000E+00  2.00000000E+00  2.00000000E+00
  2.00000000E+00  3.00000000E+00  3.00000000E+00  2.00000000E+00  3.00000000E+00
  2.00000000E+00  3.00000000E+00  3.00000000E+00  2.00000000E+00  3.00000000E+00
  3.00000000E+00  3.00000000E+00  3.00000000E+00  2.00000000E+00
%FLAG DIHEDRAL_PHASE                                                            
%FORMAT(5E16.8)                                                                 
  3.14159400E+00  0.00000000E+00  3.14159400E+00  3.14159400E+00  3.14159400E+00
  3.14159400E+00  0.00000000E+00  0.00000000E+00  3.14159400E+00  0.00000000E+00
  0.00000000E+00  0.00000000E+00  0.00000000E+00  3.14159400E+00  0.00000000E+00
  0.00000000E+00  0.00000000E+00  0.00000000E+00  3.14159400E+00
%FLAG SCEE_SCALE_FACTOR                                                         
%FORMAT(5E16.8)                                                                 
  1.20000000E+00  1.20000000E+00  1.20000000E+00  1.20000000E+00  1.20000000E+00
  1.20000000E+00  1.20000000E+00  1.20000000E+00  1.20000000E+00  1.20000000E+00
  1.20000000E+00  1.20000000E+00  1.20000000E+00  1.20000000E+00  1.20000000E+00
  1.20000000E+00  1.20000000E+00  1.20000000E+00  0.00000000E+00
%FLAG SCNB_SCALE_FACTOR                                                         
%FORMAT(5E16.8)                                                                 
  2.00000000E+00  2.00000000E+00  2.00000000E+00  2.00000000E+00  2.00000000E+00
  2.00000000E+00  2.00000000E+00  2.00000000E+00  2.00000000E+00  2.00000000E+00
  2.00000000E+00  2.00000000E+00  2.00000000E+00  2.00000000E+00  2.00000000E+00
  2.00000000E+00  2.00000000E+00  2.00000000E+00  0.00000000E+00
%FLAG SOLTY                                                                     
%FORMAT(5E16.8)                                                                 
  0.00000000E+00  0.00000000E+00  0.00000000E+00  0.00000000E+00  0.00000000E+00
  0.00000000E+00  0.00000000E+00  0.00000000E+00  0.00000000E+00  0.00000000E+00
  0.00000000E+00  0.00000000E+00  0.00000000E+00  0.00000000E+00  0.00000000E+00
  0.00000000E+00
%FLAG LENNARD_JONES_ACOEF                                                       
%FORMAT(5E16.8)                                                                 
  6.96551276E+05  8.43969952E+05  1.02073671E+06  8.20152428E+05  9.96191545E+05
  9.62429652E+05  7.69642101E+05  9.31115275E+05  9.08092643E+05  8.49322032E+05
  8.78080588E+05  1.08339010E+06  1.00856479E+06  9.85071815E+05  9.21656095E+05
  7.10207765E+05  8.59569453E+05  8.37490391E+05  7.84008042E+05  9.05221274E+05
  7.23647490E+05  7.52549148E+04  9.27554496E+04  8.65595848E+04  8.43518904E+04
  7.98194249E+04  7.75325560E+04  6.90855956E+03  5.63013422E+04  6.97998263E+04
  6.42436358E+04  6.34160397E+04  5.62691404E+04  5.82112737E+04  4.88692384E+03
  3.39005767E+03  1.74110867E+04  2.19657590E+04  1.93962554E+04  1.99003866E+04
  1.45326307E+04  1.81940036E+04  1.27542632E+03  8.33358592E+02  1.70079100E+02
  5.22195041E+04  6.46910138E+04  5.96470418E+04  5.87815925E+04  5.25898012E+04
  5.39664468E+04  4.56536476E+03  3.17496391E+03  7.86541227E+02  2.97255425E+03
  1.71458823E+03  2.23577481E+03  1.82491629E+03  2.01475241E+03  1.00942006E+03
  1.82809059E+03  9.04434904E+01  5.24570081E+01  7.30589786E+00  5.02830284E+01
  1.34728399E-01  8.12662403E+04  1.00235148E+05  9.33839501E+04  9.11435380E+04
  8.55808446E+04  8.37616145E+04  7.41026906E+03  5.22955465E+03  1.35510742E+03
  4.88692384E+03  9.47421632E+01  7.94617769E+03
%FLAG LENNARD_JONES_BCOEF                                                       
%FORMAT(5E16.8)                                                                 
  5.24668528E+02  5.90251928E+02  6.63431737E+02  6.82622272E+02  7.68900328E+02
  8.86629877E+02  5.44830041E+02  6.12468585E+02  7.09588248E+02  5.65406768E+02
  1.32715352E+03  1.50664821E+03  1.70541695E+03  1.38866053E+03  3.06326052E+03
  5.11427129E+02  5.75038595E+02  6.65894869E+02  5.30834917E+02  1.30081021E+03
  4.98353106E+02  1.09570372E+02  1.24325688E+02  1.40899023E+02  1.14599119E+02
  2.54229244E+02  1.07361937E+02  2.10929191E+01  1.01040256E+02  1.14981426E+02
  1.29412081E+02  1.05935811E+02  2.27570369E+02  9.91793374E+01  1.89134207E+01
  1.67944276E+01  5.61885732E+01  6.45020662E+01  7.11080405E+01  5.93436142E+01
  1.15651879E+02  5.54474770E+01  9.66228818E+00  8.32679019E+00  3.76172582E+00
  9.12729468E+01  1.03827676E+02  1.16962018E+02  9.56653235E+01  2.06358315E+02
  8.95715726E+01  1.71467049E+01  1.52447987E+01  7.58775053E+00  1.38359132E+01
  1.46824710E+01  1.71355763E+01  1.81620725E+01  1.57231024E+01  2.53805311E+01
  1.46352678E+01  2.14252117E+00  1.73959275E+00  6.49206153E-01  1.59752321E+00
  7.34107347E-02  1.21392023E+02  1.37787728E+02  1.56025608E+02  1.27000718E+02
  2.80652463E+02  1.18970742E+02  2.32899892E+01  2.08590256E+01  1.06181419E+01
  1.89134207E+01  2.33785449E+00  2.57122925E+01
%FLAG BONDS_INC_HYDROGEN                                                        
%FORMAT(10I8)                                                                   
       0     108       2       3     111       2       6     114       2      12
     117       5      12     120       5      30     123      13      36     126
       2      39     129       2      45     132       5      45     135       5
      51     138      14      57     141      17      63     144       2      66
     147       2      69     150      18      72     153      13      72     156
      13      75     159      20      75     162      20      78     165       5
      78     168       5      84     171      24      87     174      25      87
     177      25      90     180      25      90     183      25      93     186
      25      93     189      25      96     192       5      96     195       5
      99     198      13      99     201      13     102     204       2     105
     207       2
%FLAG BONDS_WITHOUT_HYDROGEN                                                    
%FORMAT(10I8)                                                                   
       0       3       1       0     105       1       3       6       1       6
       9       1       9      12       3       9     102       1      12      15
       4      15      18       6      15      27       7      18      21       8
      21      24       9      24      27      10      27      30      11      30
      33       3      30      69      12      33      36       1      33      66
       1      36      39       1      39      42       1      42      45       3
      42      63       1      45      48       4      48      51       7      48
      60       6      51      54      10      54      57      15      57      60
      16      63      66       1      69      72      12      69      99      12
      72      75      19      75      78      19      78      81      21      81
      84      22      81      96      21      84      87      23      84      93
      23      87      90      23      90      93      23      96      99      19
     102     105       1
%FLAG ANGLES_INC_HYDROGEN                                                       
%FORMAT(10I8)                                                                   
       0       3     111       2       0     105     207       2       3       0
     108       2       3       6     114       2       6       3     111       2
       9       6     114       2       9      12     117       5       9      12
     120       5       9     102     204       2      15      12     117       8
      15      12     120       8      27      30     123      18      30      69
     150      20      33      30     123      22      33      36     126       2
      33      66     147       2      36      39     129       2      39      36
     126       2      42      39     129       2      42      45     132       5
      42      45     135       5      42      63     144       2      48      45
     132       8      48      45     135       8      48      51     138      23
      54      51     138      26      54      57     141      28      60      57
     141      29      63      66     147       2      66      63     144       2
      69      30     123      30      69      72     153      30      69      72
     156      30      69      99     198      30      69      99     201      30
      72      69     150      20      72      75     159      33      72      75
     162      33      75      72     153      34      75      72     156      34
      75      78     165      36      75      78     168      36      78      75
     159      33      78      75     162      33      81      78     165      39
      81      78     168      39      81      84     171      41      81      96
     192      39      81      96     195      39      84      87     174      43
      84      87     177      43      84      93     186      43      84      93
     189      43      87      84     171      44      87      90     180      43
      87      90     183      43      90      87     174      43      90      87
     177      43      90      93     186      43      90      93     189      43
      93      90     180      43      93      90     183      43      93      84
     171      44      96      99     198      34      96      99     201      34
      99      96     192      36      99      96     195      36      99      69
     150      20     102     105     207       2     105     102     204       2
     105       0     108       2     117      12     120      45     132      45
     135      45     153      72     156      46     159      75     162      47
     165      78     168      45     174      87     177      48     180      90
     183      48     186      93     189      48     192      96     195      45
     198      99     201      46
%FLAG ANGLES_WITHOUT_HYDROGEN                                                   
%FORMAT(10I8)                                                                   
       0       3       6       1       0     105     102       1       3       0
     105       1       3       6       9       1       6       9      12       3
       6       9     102       1       9      12      15       4       9     102
     105       1      12       9     102       3      12      15      18       6
      12      15      27       7      15      18      21       9      15      27
      24      10      15      27      30      11      18      15      27      12
      18      21      24      13      21      24      27      14      24      27
      30      15      27      30      33      16      27      30      69      17
      30      33      36       3      30      33      66       3      30      69
      72      19      30      69      99      19      33      30      69      21
      33      36      39       1      33      66      63       1      36      33
      66       1      36      39      42       1      39      42      45       3
      39      42      63       1      42      45      48       4      42      63
      66       1      45      42      63       3      45      48      51       7
      45      48      60       6      48      51      54      10      48      60
      57      24      51      48      60      12      51      54      57      25
      54      57      60      27      69      72      75      31      69      99
      96      31      72      69      99      19      72      75      78      32
      75      78      81      35      78      81      84      37      78      81
      96      38      81      84      87      40      81      84      93      40
      81      96      99      35      84      81      96      37      84      87
      90      42      84      93      90      42      87      84      93      42
      87      90      93      42
%FLAG DIHEDRALS_INC_HYDROGEN                                                    
%FORMAT(10I8)                                                                   
       0       3       6     114       1       0     105     102     204       1
       3       0     105     207       1     108       0       3       6       1
       6       9      12     117       2       6       9      12     120       2
       6       9     102     204       1       9       6       3     111       1
       9     102     105     207       1      12       9       6     114       1
      12       9     102     204       1      15      27      30     123       7
      18      15      12     117       2      18      15      12     120       2
      24      27      30     123       7      27      30      69     150       8
      27      15      12     117       9      27      15      12     120       9
      30      33      36     126       1      30      33      66     147       1
      30      69      72     153       8      30      69      72     156       8
      30      69      99     198       8      30      69      99     201       8
      33      30      69     150       8      33      36      39     129       1
      33      66      63     144       1      36      33      30     123       2
      36      33      66     147       1      39      42      45     132       2
      39      42      45     135       2      39      42      63     144       1
      42      39      36     126       1      42      63      66     147       1
      45      42      39     129       1      45      42      63     144       1
      45      48      51     138       4      48      60      57     141       6
      51      48      45     132       9      51      48      45     135       9
      51      54      57     141       6      57      54      51     138       6
      60      48      45     132       2      60      48      45     135       2
      60      48      51     138       4      63      42      39     129       1
      63      42      45     132       2      63      42      45     135       2
      66      33      30     123       2      66      33      36     126       1
      69      72      75     159       8      69      72      75     162       8
      69      99      96     192       8      69      99      96     195       8
      72      69      30     123       8      72      69      99     198       8
      72      69      99     201       8      72      75      78     165       8
      72      75      78     168       8      75      72      69     150       8
      78      75      72     153       8      78      75      72     156       8
      78      81      84     171      16      78      81      96     192      16
      78      81      96     195      16      81      78      75     159      17
      81      78      75     162      17      81      84      87     174       8
      81      84      87     177       8      81      84      93     186       8
      81      84      93     189       8      81      96      99     198       8
      81      96      99     201       8      84      81      78     165      13
      84      81      78     168      13      84      81      96     192      13
      84      81      96     195      13      84      87      90     180       8
      84      87      90     183       8      84      93     -90     180       8
      84      93     -90     183       8      87      84      93     186       8
      87      84      93     189       8      87      90     -93     186       8
      87      90     -93     189       8      90      87      84     171       8
      90      93     -84     171       8      93      90      87     174       8
      93      90      87     177       8      93      84     -87     174       8
      93      84     -87     177       8      96      81      78     165      16
      96      81      78     168      16      96      81      84     171      16
      96      99      69     150       8      99      69      30     123       8
      99      69      72     153       8      99      69      72     156       8
     102       9       6     114       1     102       9      12     117       2
     102       9      12     120       2     108       0     105     102       1
     105       0       3     111       1     108       0       3     111       1
     108       0     105     207       1     111       3       6     114       1
     123      30      69     150      18     126      36      39     129       1
     144      63      66     147       1     150      69      72     153      18
     150      69      72     156      18     150      69      99     198      18
     150      69      99     201      18     153      72      75     159       8
     153      72      75     162       8     156      72      75     159       8
     156      72      75     162       8     159      75      78     165       8
     159      75      78     168       8     162      75      78     165       8
     162      75      78     168       8     171      84      87     174       8
     171      84      87     177       8     171      84      93     186       8
     171      84      93     189       8     174      87      90     180       8
     174      87      90     183       8     177      87      90     180       8
     177      87      90     183       8     180      90      93     186       8
     180      90      93     189       8     183      90      93     186       8
     183      90      93     189       8     192      96      99     198       8
     192      96      99     201       8     195      96      99     198       8
     195      96      99     201       8     204     102     105     207       1
     108       0    -105      -3      19       0       6      -3    -111      19
       3       9      -6    -114      19      33      39     -36    -126      19
      36      42     -39    -129      19     138      48     -51     -54      19
     141      60     -57     -54      19      42      66     -63    -144      19
      33      63     -66    -147      19       9     105    -102    -204      19
       0     102    -105    -207      19
%FLAG DIHEDRALS_WITHOUT_HYDROGEN                                                
%FORMAT(10I8)                                                                   
       0       3       6       9       1       0     105    -102       9       1
       3       0     105     102       1       3       6       9      12       1
       3       6      -9     102       1     105       0       3       6       1
       6       9      12      15       2       6       9    -102     105       1
       9      12      15      18       2       9      12      15      27       2
      12       9     102     105       1      12      15      18      21       3
      12      15      27      24       4      12      15      27      30       4
      15      12       9     102       2      15      18     -21      24       5
      15      27     -24      21       6      15      27      30      33       7
      15      27      30      69       7      18      15     -27      24       4
      18      15      27      30       4      18      21     -24      27       5
      21      18     -15      27       3      21      24      27      30       6
      24      27      30      33       7      24      27      30      69       7
      27      30      33      36       2      27      30      33      66       2
      27      30      69      72       8      27      30      69      99       8
      30      33      36      39       1      30      33      66      63       1
      30      69      72      75      10      30      69      99      96      10
      33      30      69      72      11      33      30     -69      72      10
      33      30      69      99      11      33      30     -69      99      10
      33      36      39      42       1      33      66     -63      42       1
      36      33      30      69       2      36      33      66      63       1
      36      39      42      45       1      36      39     -42      63       1
      39      36      33      66       1      39      42      45      48       2
      39      42     -63      66       1      42      45      48      51       2
      42      45      48      60       2      45      42      63      66       1
      45      48      51      54       4      45      48      60      57       3
      48      45      42      63       2      48      51     -54      57       6
      48      60     -57      54       6      51      48     -60      57       3
      51      54     -57      60       6      54      51     -48      60       4
      66      33      30      69       2      69      72      75      78      12
      69      99      96      81       8      72      69      99      96      10
      72      75      78      81      12      75      72      69      99      10
      75      78      81      84      13      75      78      81      96      14
      75      78     -81      96      15      78      81      84      87      14
      78      81     -84      87      15      78      81      84      93      14
      78      81     -84      93      15      78      81      96      99      14
      78      81     -96      99      15      81      84      87      90       8
      81      84     -93      90       8      84      81      96      99      13
      84      87     -90      93       8      84      93     -90      87       8
      87      84      81      96      14      87      84     -81      96      15
      87      84     -93      90       8      90      87     -84      93       8
      93      84      81      96      14      93      84     -81      96      15
       6     102      -9     -12      19      12      27     -15     -18      19
      30      15     -27     -24      19      30      36     -33     -66      19
      45      39     -42     -63      19      45      51     -48     -60      19
%FLAG EXCLUDED_ATOMS_LIST                                                       
%FORMAT(10I8)                                                                   
       2       3       4      35      36      37      38      39      69      70
       3       4       5      35      36      37      38      39      70       4
       5       6      35      36      37      38      39      40      41      69
       5       6       7      10      35      36      38      39      40      41
      69      70       6       7       8       9      10      11      35      36
      39      40      41      69       7       8       9      10      11      12
      24      35      40      41      42       8       9      10      11      40
      41       9      10      11      10      11      12      24      42      11
      12      13      23      24      25      34      40      41      42      51
      12      13      14      22      23      24      25      26      33      34
      42      43      50      51      52      53      67      68      13      14
      15      22      23      24      25      34      42      43      44      49
      50      51      14      15      16      22      23      24      42      43
      44      50      15      16      17      22      23      43      44      45
      46      49      16      17      18      21      22      23      43      44
      45      46      49      50      17      18      19      20      21      22
      23      44      45      46      47      49      18      19      20      21
      22      45      46      47      48      19      20      21      45      46
      47      48      20      21      47      48      21      47      48      45
      46      47      48      23      44      45      46      49      50      24
      42      43      49      50      25      26      27      28      33      34
      42      51      52      53      54      55      65      66      67      68
      26      27      28      33      34      42      51      52      53      54
      55      56      57      67      68      27      28      29      33      34
      51      52      53      54      55      56      57      28      29      30
      32      33      34      52      53      54      55      56      57      58
      65      66      29      30      31      32      33      34      54      55
      56      57      58      59      60      63      64      65      66      67
      68      30      31      32      33      34      56      57      58      59
      60      61      62      63      64      65      66      31      32      33
      58      59      60      61      62      63      64      32      58      59
      60      61      62      63      64      33      58      59      60      61
      62      63      64      34      51      56      57      58      65      66
      67      68      42      51      52      53      65      66      67      68
      36      37      39      40      41      69      70      37      38      69
      70      38      70      39       0      41       0      51      44       0
      46       0       0       0      50       0      52      53      67      68
      53      54      55      54      55      55      56      57      56      57
      57       0      59      60      63      64      60      61      62      61
      62      62      63      64      63      64      64       0      66      67
      68      67      68      68       0      70       0
%FLAG HBOND_ACOEF                                                               
%FORMAT(5E16.8)                                                                 

%FLAG HBOND_BCOEF                                                               
%FORMAT(5E16.8)                                                                 

%FLAG HBCUT                                                                     
%FORMAT(5E16.8)                                                                 

%FLAG AMBER_ATOM_TYPE                                                           
%FORMAT(20a4)                                                                   
ca  ca  ca  ca  c3  na  nc  nd  nd  cc  c3  ca  ca  ca  ca  c3  na  cc  nd  cd  
nc  ca  ca  nx  c3  c3  c3  n3  cy  cy  cy  cy  c3  c3  ca  ca  ha  ha  ha  h1  
h1  hx  ha  ha  h1  h1  h5  h5  ha  ha  hn  hx  hx  hc  hc  h1  h1  h1  hc  hc  
hc  hc  hc  hc  h1  h1  hx  hx  ha  ha  
%FLAG TREE_CHAIN_CLASSIFICATION                                                 
%FORMAT(20a4)                                                                   
BLA BLA BLA BLA BLA BLA BLA BLA BLA BLA BLA BLA BLA BLA BLA BLA BLA BLA BLA BLA 
BLA BLA BLA BLA BLA BLA BLA BLA BLA BLA BLA BLA BLA BLA BLA BLA BLA BLA BLA BLA 
BLA BLA BLA BLA BLA BLA BLA BLA BLA BLA BLA BLA BLA BLA BLA BLA BLA BLA BLA BLA 
BLA BLA BLA BLA BLA BLA BLA BLA BLA BLA 
%FLAG JOIN_ARRAY                                                                
%FORMAT(10I8)                                                                   
       0       0       0       0       0       0       0       0       0       0
       0       0       0       0       0       0       0       0       0       0
       0       0       0       0       0       0       0       0       0       0
       0       0       0       0       0       0       0       0       0       0
       0       0       0       0       0       0       0       0       0       0
       0       0       0       0       0       0       0       0       0       0
       0       0       0       0       0       0       0       0       0       0
%FLAG IROTAT                                                                    
%FORMAT(10I8)                                                                   
       0       0       0       0       0       0       0       0       0       0
       0       0       0       0       0       0       0       0       0       0
       0       0       0       0       0       0       0       0       0       0
       0       0       0       0       0       0       0       0       0       0
       0       0       0       0       0       0       0       0       0       0
       0       0       0       0       0       0       0       0       0       0
       0       0       0       0       0       0       0       0       0       0
%FLAG RADIUS_SET                                                                
%FORMAT(1a80)                                                                   
modified Bondi radii (mbondi)                                                   
%FLAG RADII                                                                     
%FORMAT(5E16.8)                                                                 
  1.70000000E+00  1.70000000E+00  1.70000000E+00  1.70000000E+00  1.70000000E+00
  1.55000000E+00  1.55000000E+00  1.55000000E+00  1.55000000E+00  1.70000000E+00
  1.70000000E+00  1.70000000E+00  1.70000000E+00  1.70000000E+00  1.70000000E+00
  1.70000000E+00  1.55000000E+00  1.70000000E+00  1.55000000E+00  1.70000000E+00
  1.55000000E+00  1.70000000E+00  1.70000000E+00  1.55000000E+00  1.70000000E+00
  1.70000000E+00  1.70000000E+00  1.55000000E+00  1.70000000E+00  1.70000000E+00
  1.70000000E+00  1.70000000E+00  1.70000000E+00  1.70000000E+00  1.70000000E+00
  1.70000000E+00  1.30000000E+00  1.30000000E+00  1.30000000E+00  1.30000000E+00
  1.30000000E+00  1.30000000E+00  1.30000000E+00  1.30000000E+00  1.30000000E+00
  1.30000000E+00  1.30000000E+00  1.30000000E+00  1.30000000E+00  1.30000000E+00
  1.30000000E+00  1.30000000E+00  1.30000000E+00  1.30000000E+00  1.30000000E+00
  1.30000000E+00  1.30000000E+00  1.30000000E+00  1.30000000E+00  1.30000000E+00
  1.30000000E+00  1.30000000E+00  1.30000000E+00  1.30000000E+00  1.30000000E+00
  1.30000000E+00  1.30000000E+00  1.30000000E+00  1.30000000E+00  1.30000000E+00
%FLAG SCREEN                                                                    
%FORMAT(5E16.8)                                                                 
  7.20000000E-01  7.20000000E-01  7.20000000E-01  7.20000000E-01  7.20000000E-01
  7.90000000E-01  7.90000000E-01  7.90000000E-01  7.90000000E-01  7.20000000E-01
  7.20000000E-01  7.20000000E-01  7.20000000E-01  7.20000000E-01  7.20000000E-01
  7.20000000E-01  7.90000000E-01  7.20000000E-01  7.90000000E-01  7.20000000E-01
  7.90000000E-01  7.20000000E-01  7.20000000E-01  7.90000000E-01  7.20000000E-01
  7.20000000E-01  7.20000000E-01  7.90000000E-01  7.20000000E-01  7.20000000E-01
  7.20000000E-01  7.20000000E-01  7.20000000E-01  7.20000000E-01  7.20000000E-01
  7.20000000E-01  8.50000000E-01  8.50000000E-01  8.50000000E-01  8.50000000E-01
  8.50000000E-01  8.50000000E-01  8.50000000E-01  8.50000000E-01  8.50000000E-01
  8.50000000E-01  8.50000000E-01  8.50000000E-01  8.50000000E-01  8.50000000E-01
  8.50000000E-01  8.50000000E-01  8.50000000E-01  8.50000000E-01  8.50000000E-01
  8.50000000E-01  8.50000000E-01  8.50000000E-01  8.50000000E-01  8.50000000E-01
  8.50000000E-01  8.50000000E-01  8.50000000E-01  8.50000000E-01  8.50000000E-01
  8.50000000E-01  8.50000000E-01  8.50000000E-01  8.50000000E-01  8.50000000E-01
%FLAG IPOL                                                                      
%FORMAT(1I8)                                                                    
       0
