MOL
    70
  -0.9860000   0.2340000  -5.0580000  -1.7260000   1.2500000  -4.4570000
  -1.0900000   2.1970000  -3.6530000   0.2950000   2.1240000  -3.4260000
   0.9950000   3.1310000  -2.5480000   0.3660000   3.2570000  -1.2440000
  -0.0530000   4.4610000  -0.8230000  -0.5990000   4.2590000   0.3650000
  -0.5300000   2.9390000   0.7150000   0.0890000   2.3230000  -0.2760000
   0.3670000   0.8500000  -0.3380000   1.8470000   0.4910000  -0.4380000
   2.2440000  -0.5990000  -1.2300000   3.5840000  -0.9800000  -1.3070000
   4.5690000  -0.2820000  -0.5980000   6.0070000  -0.7490000  -0.6350000
   6.2120000  -1.8600000   0.2750000   6.7150000  -1.8170000   1.5370000
   6.7260000  -3.0280000   2.0440000   6.2340000  -3.7950000   1.0260000
   5.8890000  -3.1220000  -0.0760000   4.1870000   0.8160000   0.1800000
   2.8440000   1.1990000   0.2580000  -0.3730000   0.1130000   0.8050000
   0.2460000   0.2580000   2.1750000  -0.8350000   0.4820000   3.2260000
  -1.6510000  -0.7530000   3.5860000  -2.3340000  -1.4420000   2.4930000
  -3.4430000  -0.6940000   1.8990000  -4.3770000  -1.6430000   1.0990000
  -5.5570000  -0.8730000   1.7300000  -4.6130000  -0.5720000   2.9140000
  -1.4420000  -2.1060000   1.5450000  -0.7710000  -1.2900000   0.4240000
   1.0320000   1.1140000  -4.0630000   0.3920000   0.1700000  -4.8670000
  -1.4810000  -0.4890000  -5.7030000  -2.7970000   1.3200000  -4.6400000
  -1.6870000   3.0010000  -3.2240000   2.0390000   2.8560000  -2.3650000
   0.9850000   4.1120000  -3.0380000  -0.1350000   0.4910000  -1.2440000
   1.5190000  -1.1780000  -1.8020000   3.8600000  -1.8490000  -1.9080000
   6.6930000   0.0560000  -0.3500000   6.2880000  -1.0780000  -1.6430000
   7.0470000  -0.9120000   2.0270000   6.1220000  -4.8700000   1.0930000
   4.9310000   1.3790000   0.7440000   2.6020000   2.0610000   0.8800000
  -1.2520000   0.6430000   0.8680000   0.8710000  -0.6200000   2.3710000
   0.8840000   1.1440000   2.1690000  -1.5030000   1.2960000   2.9190000
  -0.3430000   0.8310000   4.1430000  -2.3780000  -0.4710000   4.3560000
  -0.9910000  -1.4720000   4.0900000  -3.2030000   0.2400000   1.3830000
  -4.3020000  -1.5750000   0.0110000  -4.3590000  -2.7010000   1.3910000
  -6.4430000  -1.4670000   1.9660000  -5.8600000   0.0160000   1.1660000
  -4.6530000  -1.3390000   3.6970000  -4.7390000   0.4110000   3.3750000
  -0.6500000  -2.6160000   2.1110000  -1.9820000  -2.9330000   1.0660000
  -1.4600000  -1.1900000  -0.4220000   0.1270000  -1.8160000   0.0900000
   2.1150000   1.0580000  -3.9550000   0.9710000  -0.6040000  -5.3690000
