%VERSION  VERSION_STAMP = V0001.000  DATE = 07/11/26  13:36:51                  
%FLAG TITLE                                                                     
%FORMAT(20a4)                                                                   
MOL                                                                             
%FLAG POINTERS                                                                  
%FORMAT(10I8)                                                                   
     135      13      77      60     172      89     303     235       0       0
     789       1      60      89     235      16      33      49      14       0
       0       0       0       0       0       0       0       0     135       0
       0
%FLAG ATOM_NAME                                                                 
%FORMAT(20a4)                                                                   
C1  C2  C3  O1  C4  O2  C5  C6  C7  O3  C8  C9  C10 C11 O4  C12 C13 O5  C14 C15 
O6  C16 C17 C18 O7  C19 O8  C20 C21 C22 C23 N1  C24 C25 C26 O9  C27 C28 O10 C29 
C30 C31 C32 N2  O11 C33 O12 C34 C35 O13 C36 C37 C38 C39 O14 C40 C41 O15 H1  H2  
H3  H4  H5  H6  H7  H8  H9  H10 H11 H12 H13 H14 H15 H16 H17 H18 H19 H20 H21 H22 
H23 H24 H25 H26 H27 H28 H29 H30 H31 H32 H33 H34 H35 H36 H37 H38 H39 H40 H41 H42 
H43 H44 H45 H46 H47 H48 H49 H50 H51 H52 H53 H54 H55 H56 H57 H58 H59 H60 H61 H62 
H63 H64 H65 H66 H67 H68 H69 H70 H71 H72 H73 H74 H75 H76 H77 
%FLAG CHARGE                                                                    
%FORMAT(5E16.8)                                                                 
 -1.76938533E+00 -1.55618442E+00  2.77161183E+00 -8.08887897E+00  1.14818712E+01
 -1.00587096E+01 -2.30876541E+00 -1.49605083E+00  2.82627873E+00 -8.19274608E+00
  5.82931377E+00 -2.30329872E+00  2.36525454E+00 -2.22494283E+00 -7.75541088E+00
  2.18120931E+00  2.31605433E+00 -1.06746233E+01  2.09738673E+00 -1.78760763E+00
 -7.99230078E+00 -1.28831661E+00 -1.62360693E+00  2.91739023E+00 -8.08341228E+00
  5.75642457E+00 -7.77363318E+00  2.82627873E+00 -2.37072123E+00 -2.33974332E+00
  2.19578715E+00 -1.22891191E+01  1.53249543E+00  1.53249543E+00  1.98805293E+00
 -1.16586275E+01  2.71147824E+00 -2.18849823E+00 -1.19137397E+01 -2.10285342E+00
 -2.33245440E+00 -1.75116303E+00  6.38327169E+00 -7.62056586E+00 -4.14192879E+00
  6.03522576E+00 -7.82830008E+00  2.26685412E+00  1.64729592E+00 -7.95585618E+00
  2.10832011E+00 -2.20489830E+00 -1.80582993E+00  2.27960973E+00 -1.08750686E+01
  2.45636604E+00 -2.33427663E+00 -1.09479578E+01  8.26691084E-01  8.26691084E-01
  8.26691084E-01  9.05648310E-01  9.05648310E-01  1.67098491E+00  1.54342881E+00
  9.96759810E-01  9.96759810E-01  9.96759810E-01  1.34298351E+00  2.03543091E+00
  1.30653891E+00  1.30653891E+00  9.96759810E-01  9.96759810E-01  9.96759810E-01
  7.17357284E-01  7.17357284E-01  7.17357284E-01  1.56165111E+00  7.58047680E+00
  8.14536810E-01  9.11716336E-01  9.11716336E-01  9.11716336E-01  1.54342881E+00
  7.96314510E-01  7.96314510E-01  7.96314510E-01  1.34298351E+00  2.30876541E+00
  1.63454031E+00  1.13647018E+00  1.13647018E+00  1.13647018E+00  1.26098316E+00
  1.26098316E+00  2.27232081E+00  8.65194804E+00  1.86536218E+00  1.86536218E+00
  1.86536218E+00  1.86536218E+00  1.86536218E+00  1.86536218E+00  1.45231731E+00
  8.58270330E+00  9.23870610E-01  9.23870610E-01  9.23870610E-01  7.74447750E+00
  1.13342706E+00  1.13342706E+00  1.36120581E+00  8.38827136E-01  8.38827136E-01
  8.38827136E-01  1.63454031E+00  1.63454031E+00  1.25187201E+00  1.25187201E+00
  7.78092210E-01  7.78092210E-01  6.86980710E-01  6.86980710E-01  6.86980710E-01
  1.28831661E+00  9.42092910E-01  9.42092910E-01  9.42092910E-01  1.30653891E+00
  7.58047680E+00  1.02713638E+00  1.02713638E+00  1.02713638E+00  7.59869910E+00
%FLAG ATOMIC_NUMBER                                                             
%FORMAT(10I8)                                                                   
       6       6       6       8       6       8       6       6       6       8
       6       6       6       6       8       6       6       8       6       6
       8       6       6       6       8       6       8       6       6       6
       6       7       6       6       6       8       6       6       8       6
       6       6       6       7       8       6       8       6       6       8
       6       6       6       6       8       6       6       8       1       1
       1       1       1       1       1       1       1       1       1       1
       1       1       1       1       1       1       1       1       1       1
       1       1       1       1       1       1       1       1       1       1
       1       1       1       1       1       1       1       1       1       1
       1       1       1       1       1       1       1       1       1       1
       1       1       1       1       1       1       1       1       1       1
       1       1       1       1       1       1       1       1       1       1
       1       1       1       1       1
%FLAG MASS                                                                      
%FORMAT(5E16.8)                                                                 
  1.20100000E+01  1.20100000E+01  1.20100000E+01  1.60000000E+01  1.20100000E+01
  1.60000000E+01  1.20100000E+01  1.20100000E+01  1.20100000E+01  1.60000000E+01
  1.20100000E+01  1.20100000E+01  1.20100000E+01  1.20100000E+01  1.60000000E+01
  1.20100000E+01  1.20100000E+01  1.60000000E+01  1.20100000E+01  1.20100000E+01
  1.60000000E+01  1.20100000E+01  1.20100000E+01  1.20100000E+01  1.60000000E+01
  1.20100000E+01  1.60000000E+01  1.20100000E+01  1.20100000E+01  1.20100000E+01
  1.20100000E+01  1.40100000E+01  1.20100000E+01  1.20100000E+01  1.20100000E+01
  1.60000000E+01  1.20100000E+01  1.20100000E+01  1.60000000E+01  1.20100000E+01
  1.20100000E+01  1.20100000E+01  1.20100000E+01  1.40100000E+01  1.60000000E+01
  1.20100000E+01  1.60000000E+01  1.20100000E+01  1.20100000E+01  1.60000000E+01
  1.20100000E+01  1.20100000E+01  1.20100000E+01  1.20100000E+01  1.60000000E+01
  1.20100000E+01  1.20100000E+01  1.60000000E+01  1.00800000E+00  1.00800000E+00
  1.00800000E+00  1.00800000E+00  1.00800000E+00  1.00800000E+00  1.00800000E+00
  1.00800000E+00  1.00800000E+00  1.00800000E+00  1.00800000E+00  1.00800000E+00
  1.00800000E+00  1.00800000E+00  1.00800000E+00  1.00800000E+00  1.00800000E+00
  1.00800000E+00  1.00800000E+00  1.00800000E+00  1.00800000E+00  1.00800000E+00
  1.00800000E+00  1.00800000E+00  1.00800000E+00  1.00800000E+00  1.00800000E+00
  1.00800000E+00  1.00800000E+00  1.00800000E+00  1.00800000E+00  1.00800000E+00
  1.00800000E+00  1.00800000E+00  1.00800000E+00  1.00800000E+00  1.00800000E+00
  1.00800000E+00  1.00800000E+00  1.00800000E+00  1.00800000E+00  1.00800000E+00
  1.00800000E+00  1.00800000E+00  1.00800000E+00  1.00800000E+00  1.00800000E+00
  1.00800000E+00  1.00800000E+00  1.00800000E+00  1.00800000E+00  1.00800000E+00
  1.00800000E+00  1.00800000E+00  1.00800000E+00  1.00800000E+00  1.00800000E+00
  1.00800000E+00  1.00800000E+00  1.00800000E+00  1.00800000E+00  1.00800000E+00
  1.00800000E+00  1.00800000E+00  1.00800000E+00  1.00800000E+00  1.00800000E+00
  1.00800000E+00  1.00800000E+00  1.00800000E+00  1.00800000E+00  1.00800000E+00
  1.00800000E+00  1.00800000E+00  1.00800000E+00  1.00800000E+00  1.00800000E+00
%FLAG ATOM_TYPE_INDEX                                                           
%FORMAT(10I8)                                                                   
       1       1       1       2       3       4       1       1       1       2
       1       1       1       1       2       1       1       5       1       1
       2       1       1       1       2       1       2       1       1       1
       1       6       1       1       1       5       1       1       5       1
       1       1       3       7       2       1       2       1       1       2
       1       1       1       1       5       1       1       5       8       8
       8       8       8       9       8       8       8       8       9      10
       8       8       8       8       8       9       9       9       9      11
       9       8       8       8       8       8       8       8       9      10
       9       8       8       8       8       8      12      13      12      12
      12      12      12      12       9      11       8       8       8      11
       8       8       8       8       8       8      10      10       9       9
       9       9       9       9       9       8       8       8       8       9
      11       8       8       8      11
%FLAG NUMBER_EXCLUDED_ATOMS                                                     
%FORMAT(10I8)                                                                   
      10      13      21      13      13       4      13       8      20      14
      14      15      20      11      13       4      15       6       9       6
       8      15       9      22      14      15      14      13       8      15
      19      15      10       9       8       4      15      10       9      16
      14       9      19      10       6       7       9       9       9       8
       5      13       8      15       6      12       7       6       4       3
       2       2       1       1       4       2       1       1       1       2
       1       1       2       1       1       2       1       1       2       1
       3       2       1       1       4       2       1       1       1       1
       5       2       1       1       2       1       2       6       2       1
       1       2       1       1       1       1       2       1       1       1
       2       1       3       2       1       1       1       1       3       2
       1       1       2       1       1       4       2       1       1       1
       1       2       1       1       1
%FLAG NONBONDED_PARM_INDEX                                                      
%FORMAT(10I8)                                                                   
       1       2       4       7      11      16      22      29      37      46
      56      67      79       2       3       5       8      12      17      23
      30      38      47      57      68      80       4       5       6       9
      13      18      24      31      39      48      58      69      81       7
       8       9      10      14      19      25      32      40      49      59
      70      82      11      12      13      14      15      20      26      33
      41      50      60      71      83      16      17      18      19      20
      21      27      34      42      51      61      72      84      22      23
      24      25      26      27      28      35      43      52      62      73
      85      29      30      31      32      33      34      35      36      44
      53      63      74      86      37      38      39      40      41      42
      43      44      45      54      64      75      87      46      47      48
      49      50      51      52      53      54      55      65      76      88
      56      57      58      59      60      61      62      63      64      65
      66      77      89      67      68      69      70      71      72      73
      74      75      76      77      78      90      79      80      81      82
      83      84      85      86      87      88      89      90      91
%FLAG RESIDUE_LABEL                                                             
%FORMAT(20a4)                                                                   
MOL 
%FLAG RESIDUE_POINTER                                                           
%FORMAT(10I8)                                                                   
       1
%FLAG BOND_FORCE_CONSTANT                                                       
%FORMAT(5E16.8)                                                                 
  2.32500000E+02  3.75900000E+02  2.84800000E+02  3.75900000E+02  3.72900000E+02
  6.52600000E+02  2.43200000E+02  3.77300000E+02  2.93400000E+02  5.63500000E+02
  2.22600000E+02  3.86500000E+02  4.82900000E+02  2.55600000E+02  5.18700000E+02
  1.85000000E+02
%FLAG BOND_EQUIL_VALUE                                                          
%FORMAT(5E16.8)                                                                 
  1.53800000E+00  1.09700000E+00  1.43200000E+00  1.09700000E+00  1.35800000E+00
  1.21800000E+00  1.52400000E+00  1.09600000E+00  1.42300000E+00  9.73000000E-01
  1.51100000E+00  1.09100000E+00  1.03000000E+00  1.51000000E+00  1.28200000E+00
  1.40100000E+00
%FLAG ANGLE_FORCE_CONSTANT                                                      
%FORMAT(5E16.8)                                                                 
  6.49000000E+01  4.68000000E+01  8.53000000E+01  4.69000000E+01  6.69000000E+01
  8.46000000E+01  6.24000000E+01  1.14800000E+02  8.64000000E+01  6.53000000E+01
  4.74000000E+01  8.46000000E+01  6.63000000E+01  1.10900000E+02  6.24000000E+01
  4.67000000E+01  4.90000000E+01  6.25000000E+01  8.10000000E+01  4.67000000E+01
  6.45000000E+01  4.62000000E+01  6.01000000E+01  6.55000000E+01  8.40000000E+01
  6.49000000E+01  4.75000000E+01  9.00000000E+01  8.51000000E+01  3.90000000E+01
  3.88000000E+01  3.88000000E+01  3.85000000E+01
%FLAG ANGLE_EQUIL_VALUE                                                         
%FORMAT(5E16.8)                                                                 
  1.94621748E+00  1.91637234E+00  1.88443280E+00  1.91218355E+00  2.02423373E+00
  1.92317913E+00  1.91602327E+00  2.15111922E+00  1.93242938E+00  1.93801443E+00
  1.89839544E+00  2.15024656E+00  1.96314718E+00  1.89001786E+00  1.91253261E+00
  1.92370273E+00  1.87204096E+00  1.92440086E+00  1.99334139E+00  1.92963685E+00
  1.91392888E+00  1.92178286E+00  1.88513093E+00  1.94709015E+00  2.15426082E+00
  2.01847415E+00  1.92614619E+00  1.93661817E+00  1.90642396E+00  1.87762601E+00
  1.89298492E+00  1.91549968E+00  1.92335366E+00
%FLAG DIHEDRAL_FORCE_CONSTANT                                                   
%FORMAT(5E16.8)                                                                 
  1.55555556E-01  1.10000000E-01  2.90000000E-01  1.30000000E-01  8.00000000E-01
  3.83000000E-01  2.10000000E-01  8.00000000E-02  1.40000000E+00  2.70000000E+00
  1.58000000E+00  3.18000000E+00  7.30000000E-01  0.00000000E+00  2.50000000E-01
  2.00000000E-02  0.00000000E+00  1.01000000E+00  0.00000000E+00  3.83333333E-01
  1.00000000E-01  7.40000000E-01  2.70000000E-01  5.50000000E-01  8.30000000E-01
  4.00000000E-02  0.00000000E+00  1.60000000E-01  2.40000000E-01  9.70000000E-01
  1.24000000E+00  0.00000000E+00  3.37000000E-01  1.56000000E-01  1.30000000E+00
  1.44000000E-01  5.10000000E-01  1.80000000E-01  4.15000000E+00  3.10000000E-01
  2.20000000E+00  9.00000000E-01  1.70000000E-01  1.13000000E+00  9.00000000E-01
  1.20000000E-01  1.13000000E-01  1.09000000E-01  1.10000000E+00
%FLAG DIHEDRAL_PERIODICITY                                                      
%FORMAT(5E16.8)                                                                 
  3.00000000E+00  1.00000000E+00  2.00000000E+00  3.00000000E+00  1.00000000E+00
  3.00000000E+00  3.00000000E+00  3.00000000E+00  1.00000000E+00  2.00000000E+00
  1.00000000E+00  2.00000000E+00  3.00000000E+00  3.00000000E+00  1.00000000E+00
  1.00000000E+00  2.00000000E+00  3.00000000E+00  2.00000000E+00  3.00000000E+00
  3.00000000E+00  1.00000000E+00  2.00000000E+00  3.00000000E+00  1.00000000E+00
  3.00000000E+00  1.00000000E+00  2.00000000E+00  3.00000000E+00  1.00000000E+00
  2.00000000E+00  3.00000000E+00  3.00000000E+00  3.00000000E+00  2.00000000E+00
  3.00000000E+00  1.00000000E+00  3.00000000E+00  2.00000000E+00  2.00000000E+00
  2.00000000E+00  3.00000000E+00  1.00000000E+00  2.00000000E+00  3.00000000E+00
  3.00000000E+00  3.00000000E+00  3.00000000E+00  2.00000000E+00
%FLAG DIHEDRAL_PHASE                                                            
%FORMAT(5E16.8)                                                                 
  0.00000000E+00  0.00000000E+00  3.14159400E+00  0.00000000E+00  3.14159400E+00
  0.00000000E+00  0.00000000E+00  0.00000000E+00  3.14159400E+00  3.14159400E+00
  3.14159400E+00  3.14159400E+00  0.00000000E+00  0.00000000E+00  0.00000000E+00
  3.14159400E+00  0.00000000E+00  0.00000000E+00  3.14159400E+00  0.00000000E+00
  0.00000000E+00  0.00000000E+00  3.14159400E+00  3.14159400E+00  0.00000000E+00
  3.14159400E+00  0.00000000E+00  0.00000000E+00  0.00000000E+00  3.14159400E+00
  0.00000000E+00  3.14159400E+00  0.00000000E+00  0.00000000E+00  0.00000000E+00
  0.00000000E+00  0.00000000E+00  0.00000000E+00  3.14159400E+00  0.00000000E+00
  3.14159400E+00  3.14159400E+00  3.14159400E+00  0.00000000E+00  0.00000000E+00
  0.00000000E+00  0.00000000E+00  0.00000000E+00  3.14159400E+00
%FLAG SCEE_SCALE_FACTOR                                                         
%FORMAT(5E16.8)                                                                 
  1.20000000E+00  1.20000000E+00  1.20000000E+00  1.20000000E+00  1.20000000E+00
  1.20000000E+00  1.20000000E+00  1.20000000E+00  1.20000000E+00  1.20000000E+00
  1.20000000E+00  1.20000000E+00  1.20000000E+00  1.20000000E+00  1.20000000E+00
  1.20000000E+00  1.20000000E+00  1.20000000E+00  1.20000000E+00  1.20000000E+00
  1.20000000E+00  1.20000000E+00  1.20000000E+00  1.20000000E+00  1.20000000E+00
  1.20000000E+00  1.20000000E+00  1.20000000E+00  1.20000000E+00  1.20000000E+00
  1.20000000E+00  1.20000000E+00  1.20000000E+00  1.20000000E+00  1.20000000E+00
  1.20000000E+00  1.20000000E+00  1.20000000E+00  1.20000000E+00  1.20000000E+00
  1.20000000E+00  1.20000000E+00  1.20000000E+00  1.20000000E+00  1.20000000E+00
  1.20000000E+00  1.20000000E+00  1.20000000E+00  0.00000000E+00
%FLAG SCNB_SCALE_FACTOR                                                         
%FORMAT(5E16.8)                                                                 
  2.00000000E+00  2.00000000E+00  2.00000000E+00  2.00000000E+00  2.00000000E+00
  2.00000000E+00  2.00000000E+00  2.00000000E+00  2.00000000E+00  2.00000000E+00
  2.00000000E+00  2.00000000E+00  2.00000000E+00  2.00000000E+00  2.00000000E+00
  2.00000000E+00  2.00000000E+00  2.00000000E+00  2.00000000E+00  2.00000000E+00
  2.00000000E+00  2.00000000E+00  2.00000000E+00  2.00000000E+00  2.00000000E+00
  2.00000000E+00  2.00000000E+00  2.00000000E+00  2.00000000E+00  2.00000000E+00
  2.00000000E+00  2.00000000E+00  2.00000000E+00  2.00000000E+00  2.00000000E+00
  2.00000000E+00  2.00000000E+00  2.00000000E+00  2.00000000E+00  2.00000000E+00
  2.00000000E+00  2.00000000E+00  2.00000000E+00  2.00000000E+00  2.00000000E+00
  2.00000000E+00  2.00000000E+00  2.00000000E+00  0.00000000E+00
%FLAG SOLTY                                                                     
%FORMAT(5E16.8)                                                                 
  0.00000000E+00  0.00000000E+00  0.00000000E+00  0.00000000E+00  0.00000000E+00
  0.00000000E+00  0.00000000E+00  0.00000000E+00  0.00000000E+00  0.00000000E+00
  0.00000000E+00  0.00000000E+00  0.00000000E+00  0.00000000E+00
%FLAG LENNARD_JONES_ACOEF                                                       
%FORMAT(5E16.8)                                                                 
  1.02073671E+06  5.42502534E+05  2.83662575E+05  8.43969952E+05  4.46121722E+05
  6.96551276E+05  6.30925504E+05  3.27367585E+05  5.17507491E+05  3.76435470E+05
  7.18991463E+05  3.78207390E+05  5.92438683E+05  4.37717034E+05  5.03152404E+05
  1.08339010E+06  5.42300297E+05  8.78080588E+05  6.13063863E+05  7.34758402E+05
  9.21656095E+05  9.31115275E+05  4.94433451E+05  7.69642101E+05  5.74782316E+05
  6.55497149E+05  9.85071815E+05  8.49322032E+05  1.00235148E+05  5.02224902E+04
  8.12662403E+04  5.68021765E+04  6.80216136E+04  8.55808446E+04  9.11435380E+04
  7.94617769E+03  6.97998263E+04  3.44374471E+04  5.63013422E+04  3.86646725E+04
  4.69084694E+04  5.62691404E+04  6.34160397E+04  5.22955465E+03  3.39005767E+03
  4.80619274E+04  2.33261683E+04  3.85565555E+04  2.59855087E+04  3.19666529E+04
  3.64392593E+04  4.36276732E+04  3.39005767E+03  2.16218723E+03  1.35510742E+03
  3.03553352E+02  1.16469347E+02  2.25372434E+02  1.15813907E+02  1.74176419E+02
  9.31864851E+01  2.72118326E+02  8.80612241E+00  4.36660257E+00  2.07292270E+00
  1.10360882E-05  2.19657590E+04  1.02811573E+04  1.74110867E+04  1.12566992E+04
  1.42796035E+04  1.45326307E+04  1.99003866E+04  1.35510742E+03  8.33358592E+02
  5.02080452E+02  4.00077273E-01  1.70079100E+02  2.23577481E+03  9.46795083E+02
  1.71458823E+03  9.87857350E+02  1.36475542E+03  1.00942006E+03  2.01475241E+03
  9.47421632E+01  5.24570081E+01  2.81680913E+01  2.61760843E-03  7.30589786E+00
  1.34728399E-01
%FLAG LENNARD_JONES_BCOEF                                                       
%FORMAT(5E16.8)                                                                 
  6.63431737E+02  4.38146883E+02  2.87011518E+02  5.90251928E+02  3.88758656E+02
  5.24668528E+02  5.62969425E+02  3.67361018E+02  4.98871431E+02  4.69350655E+02
  5.36620538E+02  3.52573684E+02  4.76608379E+02  4.51916854E+02  4.32634597E+02
  1.50664821E+03  9.65647936E+02  1.32715352E+03  1.22328790E+03  1.19579782E+03
  3.06326052E+03  6.12468585E+02  4.04310927E+02  5.44830041E+02  5.19385932E+02
  4.95260330E+02  1.38866053E+03  5.65406768E+02  1.37787728E+02  8.83545880E+01
  1.21392023E+02  1.11953944E+02  1.09393126E+02  2.80652463E+02  1.27000718E+02
  2.57122925E+01  1.14981426E+02  7.31636661E+01  1.01040256E+02  9.23664132E+01
  9.08431526E+01  2.27570369E+02  1.05935811E+02  2.08590256E+01  1.67944276E+01
  9.54115851E+01  6.02145835E+01  8.36149973E+01  7.57220777E+01  7.49920368E+01
  1.83132466E+02  8.78666889E+01  1.67944276E+01  1.34124560E+01  1.06181419E+01
  5.22789272E+00  2.93355636E+00  4.40751799E+00  3.48534600E+00  3.81654050E+00
  6.38507010E+00  4.78443613E+00  5.90150328E-01  4.15568027E-01  2.86326700E-01
  4.55498033E-04  6.45020662E+01  3.99761520E+01  5.61885732E+01  4.98382106E+01
  5.01215671E+01  1.15651879E+02  5.93436142E+01  1.06181419E+01  8.32679019E+00
  6.46321078E+00  1.25788875E-01  3.76172582E+00  1.71355763E+01  1.01016461E+01
  1.46824710E+01  1.22938581E+01  1.29026271E+01  2.53805311E+01  1.57231024E+01
  2.33785449E+00  1.73959275E+00  1.27474859E+00  8.47240681E-03  6.49206153E-01
  7.34107347E-02
%FLAG BONDS_INC_HYDROGEN                                                        
%FORMAT(10I8)                                                                   
       0     174       2       0     177       2       0     180       2       3
     183       2       3     186       2       6     189       4      18     192
       2      21     195       2      21     198       2      21     201       2
      24     204       4      30     207       8      33     210       2      33
     213       2      39     216       2      39     219       2      39     222
       2      45     225       4      45     228       4      45     231       4
      48     234       4      51     237      10      54     240       4      57
     243       2      57     246       2      57     249       2      63     252
       2      66     255       2      66     258       2      66     261       2
      69     264       4      75     267       8      81     270       4      84
     273       2      84     276       2      84     279       2      87     282
       2      87     285       2      90     288      12      93     291      13
      96     294      12      96     297      12      96     300      12      99
     303      12      99     306      12      99     309      12     102     312
       4     105     315      10     111     318       2     111     321       2
     111     324       2     114     327      10     117     330       2     117
     333       2     120     336       2     123     339       2     123     342
       2     123     345       2     135     348       8     135     351       8
     141     354       4     141     357       4     144     360       4     144
     363       4     150     366       4     150     369       4     150     372
       4     153     375       2     156     378       2     156     381       2
     156     384       2     159     387       4     162     390      10     168
     393       2     168     396       2     168     399       2     171     402
      10
%FLAG BONDS_WITHOUT_HYDROGEN                                                    
%FORMAT(10I8)                                                                   
       0       3       1       3       6       1       6       9       3       6
     165       1       9      12       5      12      15       6      12      18
       7      18      21       1      18      24       1      24      27       3
      24      63       1      27      30       3      30      33       1      30
      60       3      33      36       1      36      39       1      36      42
       3      36      48       1      42      45       3      48      51       9
      48      54       1      54      57       1      54      60       3      63
      66       1      63      69       1      69      72       3      69     108
       1      72      75       3      75      78       3      75     102       1
      78      81       3      81      84       1      81      87       1      87
      90       1      90      93      11      90     102       1      93      96
      11      93      99      11     102     105       9     108     111       1
     108     114       9     108     117       1     117     120       1     120
     123       1     120     126      14     126     129      15     126     153
      14     129     132      16     132     135       3     135     138       3
     138     141       3     141     144       1     144     147       3     147
     150       3     153     156       1     153     159       1     159     162
       9     159     165       1     165     168       1     165     171       9
%FLAG ANGLES_INC_HYDROGEN                                                       
%FORMAT(10I8)                                                                   
       0       3     183       2       0       3     186       2       3       0
     174       2       3       0     177       2       3       0     180       2
       3       6     189       4       6       3     183       2       6       3
     186       2       9       6     189       7      12      18     192      11
      18      21     195       2      18      21     198       2      18      21
     201       2      18      24     204       4      21      18     192       2
      24      18     192       2      24      63     252       2      27      24
     204       7      27      30     207      15      30      33     210       2
      30      33     213       2      33      30     207      16      36      33
     210       2      36      33     213       2      36      39     216       2
      36      39     219       2      36      39     222       2      36      48
     234       4      42      45     225       7      42      45     228       7
      42      45     231       7      48      51     237      17      48      54
     240       4      51      48     234      18      54      48     234       4
      54      57     243       2      54      57     246       2      54      57
     249       2      57      54     240       4      60      54     240       7
      60      30     207      15      63      24     204       4      63      66
     255       2      63      66     258       2      63      66     261       2
      63      69     264       4      66      63     252       2      69      63
     252       2      72      69     264       7      72      75     267      15
      75     102     312       4      78      75     267      15      78      81
     270       7      81      84     273       2      81      84     276       2
      81      84     279       2      81      87     282       2      81      87
     285       2      84      81     270       4      87      81     270       4
      87      90     288      20      90      87     282       2      90      87
     285       2      90      93     291      22      90     102     312       4
      93      90     288      23      93      96     294      23      93      96
     297      23      93      96     300      23      93      99     303      23
      93      99     306      23      93      99     309      23      96      93
     291      22      99      93     291      22     102      90     288      20
     102     105     315      17     102      75     267      16     105     102
     312      18     108      69     264       4     108     111     318       2
     108     111     321       2     108     111     324       2     108     114
     327      17     108     117     330       2     108     117     333       2
     117     120     336       2     120     117     330       2     120     117
     333       2     120     123     339       2     120     123     342       2
     120     123     345       2     123     120     336       2     126     120
     336      27     126     153     375      27     132     135     348      15
     132     135     351      15     138     135     348      15     138     135
     351      15     138     141     354       7     138     141     357       7
     141     144     360       4     141     144     363       4     144     141
     354       4     144     141     357       4     147     144     360       7
     147     144     363       7     147     150     366       7     147     150
     369       7     147     150     372       7     153     156     378       2
     153     156     381       2     153     156     384       2     153     159
     387       4     156     153     375       2     159     153     375       2
     159     162     390      17     162     159     387      18     165     159
     387       4     165     168     393       2     165     168     396       2
     165     168     399       2     165     171     402      17     165       6
     189       4     174       0     177      30     174       0     180      30
     177       0     180      30     183       3     186      30     195      21
     198      30     195      21     201      30     198      21     201      30
     210      33     213      30     216      39     219      30     216      39
     222      30     219      39     222      30     225      45     228      31
     225      45     231      31     228      45     231      31     243      57
     246      30     243      57     249      30     246      57     249      30
     255      66     258      30     255      66     261      30     258      66
     261      30     273      84     276      30     273      84     279      30
     276      84     279      30     282      87     285      30     294      96
     297      32     294      96     300      32     297      96     300      32
     303      99     306      32     303      99     309      32     306      99
     309      32     318     111     321      30     318     111     324      30
     321     111     324      30     330     117     333      30     339     123
     342      30     339     123     345      30     342     123     345      30
     348     135     351      33     354     141     357      31     360     144
     363      31     366     150     369      31     366     150     372      31
     369     150     372      31     378     156     381      30     378     156
     384      30     381     156     384      30     393     168     396      30
     393     168     399      30     396     168     399      30
%FLAG ANGLES_WITHOUT_HYDROGEN                                                   
%FORMAT(10I8)                                                                   
       0       3       6       1       3       6       9       3       3       6
     165       1       6       9      12       5       6     165     159       1
       6     165     168       1       6     165     171       6       9       6
     165       3       9      12      15       8       9      12      18       9
      12      18      21      10      12      18      24      10      15      12
      18      12      18      24      27       3      18      24      63       1
      21      18      24       1      24      27      30      13      24      63
      66       1      24      63      69       1      27      24      63       3
      27      30      33       3      27      30      60      14      30      33
      36       1      30      60      54      13      33      30      60       3
      33      36      39       1      33      36      42       3      33      36
      48       1      36      42      45      13      36      48      51       6
      36      48      54       1      39      36      42       3      39      36
      48       1      42      36      48       3      48      54      57       1
      48      54      60       3      51      48      54       6      57      54
      60       3      63      69      72       3      63      69     108       1
      66      63      69       1      69      72      75      13      69     108
     111       1      69     108     114       6      69     108     117       1
      72      69     108       3      72      75      78      14      72      75
     102       3      75      78      81      13      75     102      90       1
      75     102     105       6      78      75     102       3      78      81
      84       3      78      81      87       3      81      87      90       1
      84      81      87       1      87      90      93      19      87      90
     102       1      90      93      96      21      90      93      99      21
      90     102     105       6      93      90     102      19      96      93
      99      21     108     117     120       1     111     108     114       6
     111     108     117       1     114     108     117       6     117     120
     123       1     117     120     126      24     120     126     129      25
     120     126     153      26     123     120     126      24     126     129
     132      28     126     153     156      24     126     153     159      24
     129     126     153      25     129     132     135      29     132     135
     138      14     135     138     141      13     138     141     144       3
     141     144     147       3     144     147     150      13     153     159
     162       6     153     159     165       1     156     153     159       1
     159     165     168       1     159     165     171       6     162     159
     165       6     168     165     171       6
%FLAG DIHEDRALS_INC_HYDROGEN                                                    
%FORMAT(10I8)                                                                   
       0       3       6     189       1     174       0       3       6       8
     177       0       3       6       8     180       0       3       6       8
       6     165     159     387       1       6     165     168     393       8
       6     165     168     396       8       6     165     168     399       8
       6     165     171     402      14       9       6       3     183      15
       9       6      -3     183      14       9       6       3     186      15
       9       6      -3     186      14       9      12      18     192      19
      12       9       6     189      20      12      18      21     195       1
      12      18      21     198       1      12      18      21     201       1
      12      18      24     204       1      15      12      18     192      25
      15      12     -18     192      26      18      24      63     252       8
      21      18      24     204       1      24      18      21     195       8
      24      18      21     198       8      24      18      21     201       8
      24      27      30     207      20      24      63      66     255       8
      24      63      66     258       8      24      63      66     261       8
      24      63      69     264       1      27      24      18     192      15
      27      24     -18     192      14      27      24      63     252      15
      27      24     -63     252      14      27      30      33     210      15
      27      30     -33     210      14      27      30      33     213      15
      27      30     -33     213      14      30      27      24     204      33
      30      60      54     240      33      33      36      39     216       8
      33      36      39     219       8      33      36      39     222       8
      33      36      48     234       1      36      33      30     207       1
      36      42      45     225      33      36      42      45     228      33
      36      42      45     231      33      36      48      51     237      14
      36      48      54     240       1      39      36      33     210       8
      39      36      33     213       8      39      36      48     234       1
      42      36      33     210      15      42      36     -33     210      14
      42      36      33     213      15      42      36     -33     213      14
      42      36      39     216      15      42      36     -39     216      14
      42      36      39     219      15      42      36     -39     219      14
      42      36      39     222      15      42      36     -39     222      14
      42      36      48     234      15      42      36     -48     234      14
      48      36      33     210       8      48      36      33     213       8
      48      36      39     216       8      48      36      39     219       8
      48      36      39     222       8      48      54      57     243       8
      48      54      57     246       8      48      54      57     249       8
      51      48      54     240      15      51      48     -54     240      14
      54      48      51     237      14      54      60      30     207      20
      57      54      48     234       1      60      54      48     234      15
      60      54     -48     234      14      60      54      57     243      15
      60      54     -57     243      14      60      54      57     246      15
      60      54     -57     246      14      60      54      57     249      15
      60      54     -57     249      14      60      30      33     210      15
      60      30     -33     210      14      60      30      33     213      15
      60      30     -33     213      14      63      24      18     192       8
      66      63      24     204       1      66      63      69     264       1
      69      63      24     204       1      69      63      66     255       8
      69      63      66     258       8      69      63      66     261       8
      69      72      75     267      20      69     108     111     318       8
      69     108     111     321       8      69     108     111     324       8
      69     108     114     327      14      69     108     117     330       8
      69     108     117     333       8      72      69      63     252      15
      72      69     -63     252      14      72      75     102     312      15
      72      75    -102     312      14      75      72      69     264      33
      75      78      81     270      33      75     102      90     288       1
      75     102     105     315      14      78      75     102     312      15
      78      75    -102     312      14      78      81      84     273      15
      78      81     -84     273      14      78      81      84     276      15
      78      81     -84     276      14      78      81      84     279      15
      78      81     -84     279      14      78      81      87     282      15
      78      81     -87     282      14      78      81      87     285      15
      78      81     -87     285      14      81      78      75     267      20
      81      87      90     288       1      84      81      87     282       8
      84      81      87     285       8      87      81      84     273       8
      87      81      84     276       8      87      81      84     279       8
      87      90      93     291       1      87      90     102     312       1
      90      87      81     270       1      90      93      96     294       1
      90      93      96     297       1      90      93      96     300       1
      90      93      99     303       1      90      93      99     306       1
      90      93      99     309       1      90     102     105     315      14
      90     102      75     267       1      93      90      87     282       1
      93      90      87     285       1      93      90     102     312       1
      96      93      90     288       1      96      93      99     303       1
      96      93      99     306       1      96      93      99     309       1
      99      93      90     288       1      99      93      96     294       1
      99      93      96     297       1      99      93      96     300       1
     102      90      87     282       8     102      90      87     285       8
     102      90      93     291       1     105     102      90     288       1
     105     102      75     267       1     108      69      63     252       8
     108     117     120     336       8     111     108      69     264       1
     111     108     114     327      14     111     108     117     330       8
     111     108     117     333       8     114     108      69     264      15
     114     108     -69     264      14     114     108     111     318      37
     114     108    -111     318      38     114     108     111     321      37
     114     108    -111     321      38     114     108     111     324      37
     114     108    -111     324      38     114     108     117     330      37
     114     108    -117     330      38     114     108     117     333      37
     114     108    -117     333      38     117     108      69     264       1
     117     108     111     318       8     117     108     111     321       8
     117     108     111     324       8     117     108     114     327      14
     117     120     123     339       8     117     120     123     342       8
     117     120     123     345       8     120     126     153     375      40
     123     120     117     330       8     123     120     117     333       8
     126     120     117     330       1     126     120     117     333       1
     126     120     123     339       1     126     120     123     342       1
     126     120     123     345       1     126     153     156     378       1
     126     153     156     381       1     126     153     156     384       1
     126     153     159     387       1     129     126     120     336      17
     129     126     153     375      17     129     132     135     348      20
     129     132     135     351      20     135     138     141     354      33
     135     138     141     357      33     138     141     144     360      15
     138     141    -144     360      14     138     141     144     363      15
     138     141    -144     363      14     141     138     135     348      20
     141     138     135     351      20     144     147     150     366      33
     144     147     150     369      33     144     147     150     372      33
     147     144     141     354      15     147     144    -141     354      14
     147     144     141     357      15     147     144    -141     357      14
     150     147     144     360      33     150     147     144     363      33
     153     126     120     336      40     153     159     162     390      14
     156     153     159     387       1     159     153     156     378       8
     159     153     156     381       8     159     153     156     384       8
     159     165     168     393       8     159     165     168     396       8
     159     165     168     399       8     159     165     171     402      14
     159     165       6     189       1     162     159     153     375      37
     162     159    -153     375      38     165     159     153     375       8
     165     159     162     390      14     165       6       3     183       8
     165       6       3     186       8     168     165     159     387       1
     168     165     171     402      14     168     165       6     189       1
     171     165     159     387      15     171     165    -159     387      14
     171     165     168     393      37     171     165    -168     393      38
     171     165     168     396      37     171     165    -168     396      38
     171     165     168     399      37     171     165    -168     399      38
     171     165       6     189      15     171     165      -6     189      14
     174       0       3     183      46     174       0       3     186      46
     177       0       3     183      46     177       0       3     186      46
     180       0       3     183      46     180       0       3     186      46
     183       3       6     189       1     186       3       6     189       1
     192      18      21     195      46     192      18      21     198      46
     192      18      21     201      46     192      18      24     204       1
     204      24      63     252       1     207      30      33     210       1
     207      30      33     213       1     234      48      51     237      47
     234      48      54     240       1     240      54      57     243       1
     240      54      57     246       1     240      54      57     249       1
     252      63      66     255      46     252      63      66     258      46
     252      63      66     261      46     252      63      69     264       1
     267      75     102     312       1     270      81      84     273       1
     270      81      84     276       1     270      81      84     279       1
     270      81      87     282       1     270      81      87     285       1
     282      87      90     288       1     285      87      90     288       1
     288      90      93     291      48     288      90     102     312       1
     291      93      96     294      48     291      93      96     297      48
     291      93      96     300      48     291      93      99     303      48
     291      93      99     306      48     291      93      99     309      48
     312     102     105     315      47     330     117     120     336      46
     333     117     120     336      46     336     120     123     339      46
     336     120     123     342      46     336     120     123     345      46
     354     141     144     360       1     354     141     144     363       1
     357     141     144     360       1     357     141     144     363       1
     375     153     156     378      46     375     153     156     381      46
     375     153     156     384      46     375     153     159     387       1
     387     159     162     390      47
%FLAG DIHEDRALS_WITHOUT_HYDROGEN                                                
%FORMAT(10I8)                                                                   
       0       3       6       9       1       0       3       6     165       2
       0       3      -6     165       3       0       3      -6     165       4
       3       6       9      12       5       3       6      -9      12       6
       3       6     165     159       2       3       6    -165     159       3
       3       6    -165     159       4       3       6     165     168       2
       3       6    -165     168       3       3       6    -165     168       4
       3       6     165     171       7       6       9      12      15       9
       6       9     -12      15      10       6       9      12      18      11
       6       9     -12      18      12       6       9     -12      18      13
       6     165     159     153       2       6     165    -159     153       3
       6     165    -159     153       4       6     165     159     162       7
       9       6     165     159       1       9       6     165     168       1
       9       6     165     171      16       9       6    -165     171      17
       9       6    -165     171      18       9      12      18      21      19
       9      12      18      24      19      12       9       6     165       5
      12       9      -6     165       6      12      18      24      27       1
      12      18      24      63      21      15      12      18      21      22
      15      12     -18      21      23      15      12     -18      21      24
      15      12      18      24      22      15      12     -18      24      23
      15      12     -18      24      24      18      24      27      30      27
      18      24     -27      30      28      18      24     -27      30      29
      18      24      63      66       2      18      24     -63      66       3
      18      24     -63      66       4      18      24      63      69       2
      18      24     -63      69       3      18      24     -63      69       4
      21      18      24      27       1      21      18      24      63       2
      21      18     -24      63       3      21      18     -24      63       4
      24      27      30      33      27      24      27     -30      33      28
      24      27     -30      33      29      24      27      30      60      30
      24      27     -30      60      31      24      27     -30      60      32
      24      63      69      72       1      24      63      69     108       2
      24      63     -69     108       3      24      63     -69     108       4
      27      24      63      66       1      27      24      63      69       1
      27      30      33      36       1      27      30      60      54      30
      27      30     -60      54      31      27      30     -60      54      32
      30      27      24      63      27      30      27     -24      63      28
      30      27     -24      63      29      30      33      36      39       2
      30      33     -36      39       3      30      33     -36      39       4
      30      33      36      42       1      30      33      36      48       2
      30      33     -36      48       3      30      33     -36      48       4
      30      60     -54      48      27      30      60     -54      48      28
      30      60     -54      48      29      30      60      54      57      27
      30      60     -54      57      28      30      60     -54      57      29
      33      30      60      54      27      33      30     -60      54      28
      33      30     -60      54      29      33      36      42      45      27
      33      36     -42      45      28      33      36     -42      45      29
      33      36      48      51       7      33      36     -48      54       2
      33      36     -48      54       3      33      36     -48      54       4
      36      33      30      60       1      36      48      54      57       2
      36      48     -54      57       3      36      48     -54      57       4
      36      48     -54      60       1      39      36      42      45      27
      39      36     -42      45      28      39      36     -42      45      29
      39      36      48      51       7      39      36      48      54       2
      39      36     -48      54       3      39      36     -48      54       4
      42      36      48      51      16      42      36     -48      51      17
      42      36     -48      51      18      42      36      48      54       1
      45      42      36      48      27      45      42     -36      48      28
      45      42     -36      48      29      51      48      54      57       7
      51      48      54      60      16      51      48     -54      60      17
      51      48     -54      60      18      63      69      72      75      27
      63      69     -72      75      28      63      69     -72      75      29
      63      69     108     111       2      63      69    -108     111       3
      63      69    -108     111       4      63      69     108     114       7
      63      69     108     117       2      63      69    -108     117       3
      63      69    -108     117       4      66      63      69      72       1
      66      63      69     108       2      66      63     -69     108       3
      66      63     -69     108       4      69      72      75      78      30
      69      72     -75      78      31      69      72     -75      78      32
      69      72      75     102      27      69      72     -75     102      28
      69      72     -75     102      29      69     108     117     120       2
      69     108    -117     120       3      69     108    -117     120       4
      72      69     108     111       1      72      69     108     114      16
      72      69    -108     114      17      72      69    -108     114      18
      72      69     108     117       1      72      75      78      81      30
      72      75     -78      81      31      72      75     -78      81      32
      72      75     102      90       1      72      75     102     105      16
      72      75    -102     105      17      72      75    -102     105      18
      75      72      69     108      27      75      72     -69     108      28
      75      72     -69     108      29      75      78      81      84      27
      75      78     -81      84      28      75      78     -81      84      29
      75      78      81      87      27      75      78     -81      87      28
      75      78     -81      87      29      75     102     -90      87       2
      75     102     -90      87       3      75     102     -90      87       4
      75     102      90      93       7      78      75     102      90       1
      78      75     102     105      16      78      75    -102     105      17
      78      75    -102     105      18      78      81     -87      90       1
      81      78      75     102      27      81      78     -75     102      28
      81      78     -75     102      29      81      87      90      93       7
      81      87     -90     102       2      81      87     -90     102       3
      81      87     -90     102       4      84      81      87      90       2
      84      81     -87      90       3      84      81     -87      90       4
      87      90      93      96      34      87      90      93      99      34
      87      90     102     105       7      93      90     102     105      35
      93      90    -102     105      36      96      93      90     102      34
      99      93      90     102      34     108     117     120     123       2
     108     117    -120     123       3     108     117    -120     123       4
     108     117     120     126       1     111     108     117     120       2
     111     108    -117     120       3     111     108    -117     120       4
     114     108     117     120       7     117     120     126     129      17
     117     120     126     153      17     120     126     129     132      39
     120     126     153     156      17     120     126     153     159      17
     123     120     126     129      17     123     120     126     153      17
     126     129     132     135      41     126     129    -132     135      42
     126     153     159     162       1     126     153     159     165       1
     129     126     153     156      17     129     126     153     159      17
     129     132     135     138      20     132     129     126     153      39
     132     135     138     141      30     132     135    -138     141      31
     132     135    -138     141      32     135     138     141     144      27
     135     138    -141     144      28     135     138    -141     144      29
     138     141     144     147      43     138     141    -144     147      19
     138     141    -144     147      14     141     144     147     150      27
     141     144    -147     150      28     141     144    -147     150      29
     153     159     165     168       2     153     159    -165     168       3
     153     159    -165     168       4     153     159     165     171       7
     156     153     159     162       7     156     153     159     165       2
     156     153    -159     165       3     156     153    -159     165       4
     162     159     165     168       7     162     159     165     171      44
     162     159    -165     171      45      18      15     -12      -9      49
     120     153    -126    -129      49
%FLAG EXCLUDED_ATOMS_LIST                                                       
%FORMAT(10I8)                                                                   
       2       3       4      56      59      60      61      62      63      64
       3       4       5      54      56      57      58      59      60      61
      62      63      64       4       5       6       7      52      54      55
      56      57      58      59      60      61      62      63      64     130
     132     133     134     135       5       6       7       8       9      54
      56      57      58      62      63      64      65       6       7       8
       9      10      22      56      64      65      66      67      68      69
       7       8       9      65       8       9      10      11      22      23
      24      65      66      67      68      69      85       9      10      22
      65      66      67      68      69      10      11      12      21      22
      23      24      25      37      65      66      67      68      69      70
      85      86      87      88      89      11      12      13      19      21
      22      23      24      65      69      70      71      72      85      12
      13      14      15      17      19      20      21      22      69      70
      71      72      81      13      14      15      16      17      18      19
      21      70      71      72      73      74      75      79      14      15
      16      17      18      19      20      21      70      71      72      73
      74      75      76      77      78      79      80      81      15      16
      17      18      19      71      72      73      74      75      79      16
      17      18      19      71      72      73      74      75      76      77
      78      79      17      76      77      78      18      19      20      21
      71      72      73      74      75      79      80      81      82      83
      84      19      20      21      79      80      81      20      21      70
      79      80      81      82      83      84      21      79      81      82
      83      84      70      71      72      79      81      82      83      84
      23      24      25      26      37      38      39      40      65      69
      85      86      87      88      89      24      25      37      69      85
      86      87      88      89      25      26      27      35      37      38
      39      40      41      69      85      86      87      88      89      90
     107     108     109     110     111     112      26      27      28      31
      35      36      37      38      39      40      85      89      90     105
      27      28      29      30      31      32      35      36      37      89
      90      91      97     105     106      28      29      30      31      35
      36      90      91      92      93      94      95      96     105      29
      30      31      32      35      90      91      92      93      94      95
      96      97      30      31      91      92      93      94      95      96
      31      32      33      34      35      36      91      92      93      94
      95      96      97      98     105      32      33      34      35      36
      90      91      95      96      97      98      99     100     101     102
     103     104     105     106      33      34      35      36      95      96
      97      98      99     100     101     102     103     104     105      34
      35      97      98      99     100     101     102     103     104      35
      97      98      99     100     101     102     103     104      36      90
      95      96      97      98     105     106      90      97     105     106
      38      39      40      41      42      43      85      89     107     108
     109     110     111     112     113      39      40      41      89     107
     108     109     110     111     112      40      41      89     107     108
     109     110     111     112      41      42      43      44      52      89
     107     108     109     110     111     112     113     114     115     116
      42      43      44      45      52      53      54     111     112     113
     114     115     116     126      43      44      52     111     112     113
     114     115     116      44      45      46      52      53      54      55
      56     111     112     113     114     115     116     126     127     128
     129     130      45      46      47      52      53      54     113     117
     118     126      46      47      48      52     117     118      47      48
      49     117     118     119     120      48      49      50     117     118
     119     120     121     122      49      50      51     117     118     119
     120     121     122      50      51     119     120     121     122     123
     124     125      51     119     120     121     122     123     124     125
     121     122     123     124     125      53      54      55      56      57
      58     113     126     127     128     129     130     131      54      55
      56     126     127     128     129     130      55      56      57      58
      64     126     127     128     129     130     131     132     133     134
     135      56      57      58     126     130     131      57      58      62
      63      64     126     130     131     132     133     134     135      58
      64     130     132     133     134     135      64     130     132     133
     134     135      60      61      62      63      61      62      63      62
      63      63      64      64       0      66      67      68      69      67
      68      68       0      85      71      72      72       0      74      75
      75       0      77      78      78       0      80      81       0      82
      83      84      83      84      84       0      86      87      88      89
      87      88      88       0       0     105      92      93      94      95
      96      93      94      94       0      96      97      97      98     105
      99     100     101     102     103     104     100     101     101       0
     103     104     104       0     106       0     108     109     109       0
       0     112     113     113     114     115     116     115     116     116
       0     118       0     120     121     122     121     122     122       0
     124     125     125       0     127     128     129     130     128     129
     129       0     131       0     133     134     134       0       0
%FLAG HBOND_ACOEF                                                               
%FORMAT(5E16.8)                                                                 

%FLAG HBOND_BCOEF                                                               
%FORMAT(5E16.8)                                                                 

%FLAG HBCUT                                                                     
%FORMAT(5E16.8)                                                                 

%FLAG AMBER_ATOM_TYPE                                                           
%FORMAT(20a4)                                                                   
c3  c3  c3  os  c   o   c3  c3  c3  os  c3  c3  c3  c3  os  c3  c3  oh  c3  c3  
os  c3  c3  c3  os  c3  os  c3  c3  c3  c3  nx  c3  c3  c3  oh  c3  c3  oh  c3  
c3  c3  c2  n2  os  c3  os  c3  c3  os  c3  c3  c3  c3  oh  c3  c3  oh  hc  hc  
hc  hc  hc  h1  hc  hc  hc  hc  h1  h2  hc  hc  hc  hc  hc  h1  h1  h1  h1  ho  
h1  hc  hc  hc  hc  hc  hc  hc  h1  h2  h1  hc  hc  hc  hc  hc  hx  hn  hx  hx  
hx  hx  hx  hx  h1  ho  hc  hc  hc  ho  hc  hc  hc  hc  hc  hc  h2  h2  h1  h1  
h1  h1  h1  h1  h1  hc  hc  hc  hc  h1  ho  hc  hc  hc  ho  
%FLAG TREE_CHAIN_CLASSIFICATION                                                 
%FORMAT(20a4)                                                                   
BLA BLA BLA BLA BLA BLA BLA BLA BLA BLA BLA BLA BLA BLA BLA BLA BLA BLA BLA BLA 
BLA BLA BLA BLA BLA BLA BLA BLA BLA BLA BLA BLA BLA BLA BLA BLA BLA BLA BLA BLA 
BLA BLA BLA BLA BLA BLA BLA BLA BLA BLA BLA BLA BLA BLA BLA BLA BLA BLA BLA BLA 
BLA BLA BLA BLA BLA BLA BLA BLA BLA BLA BLA BLA BLA BLA BLA BLA BLA BLA BLA BLA 
BLA BLA BLA BLA BLA BLA BLA BLA BLA BLA BLA BLA BLA BLA BLA BLA BLA BLA BLA BLA 
BLA BLA BLA BLA BLA BLA BLA BLA BLA BLA BLA BLA BLA BLA BLA BLA BLA BLA BLA BLA 
BLA BLA BLA BLA BLA BLA BLA BLA BLA BLA BLA BLA BLA BLA BLA 
%FLAG JOIN_ARRAY                                                                
%FORMAT(10I8)                                                                   
       0       0       0       0       0       0       0       0       0       0
       0       0       0       0       0       0       0       0       0       0
       0       0       0       0       0       0       0       0       0       0
       0       0       0       0       0       0       0       0       0       0
       0       0       0       0       0       0       0       0       0       0
       0       0       0       0       0       0       0       0       0       0
       0       0       0       0       0       0       0       0       0       0
       0       0       0       0       0       0       0       0       0       0
       0       0       0       0       0       0       0       0       0       0
       0       0       0       0       0       0       0       0       0       0
       0       0       0       0       0       0       0       0       0       0
       0       0       0       0       0       0       0       0       0       0
       0       0       0       0       0       0       0       0       0       0
       0       0       0       0       0
%FLAG IROTAT                                                                    
%FORMAT(10I8)                                                                   
       0       0       0       0       0       0       0       0       0       0
       0       0       0       0       0       0       0       0       0       0
       0       0       0       0       0       0       0       0       0       0
       0       0       0       0       0       0       0       0       0       0
       0       0       0       0       0       0       0       0       0       0
       0       0       0       0       0       0       0       0       0       0
       0       0       0       0       0       0       0       0       0       0
       0       0       0       0       0       0       0       0       0       0
       0       0       0       0       0       0       0       0       0       0
       0       0       0       0       0       0       0       0       0       0
       0       0       0       0       0       0       0       0       0       0
       0       0       0       0       0       0       0       0       0       0
       0       0       0       0       0       0       0       0       0       0
       0       0       0       0       0
%FLAG RADIUS_SET                                                                
%FORMAT(1a80)                                                                   
modified Bondi radii (mbondi)                                                   
%FLAG RADII                                                                     
%FORMAT(5E16.8)                                                                 
  1.70000000E+00  1.70000000E+00  1.70000000E+00  1.50000000E+00  1.70000000E+00
  1.50000000E+00  1.70000000E+00  1.70000000E+00  1.70000000E+00  1.50000000E+00
  1.70000000E+00  1.70000000E+00  1.70000000E+00  1.70000000E+00  1.50000000E+00
  1.70000000E+00  1.70000000E+00  1.50000000E+00  1.70000000E+00  1.70000000E+00
  1.50000000E+00  1.70000000E+00  1.70000000E+00  1.70000000E+00  1.50000000E+00
  1.70000000E+00  1.50000000E+00  1.70000000E+00  1.70000000E+00  1.70000000E+00
  1.70000000E+00  1.55000000E+00  1.70000000E+00  1.70000000E+00  1.70000000E+00
  1.50000000E+00  1.70000000E+00  1.70000000E+00  1.50000000E+00  1.70000000E+00
  1.70000000E+00  1.70000000E+00  1.70000000E+00  1.55000000E+00  1.50000000E+00
  1.70000000E+00  1.50000000E+00  1.70000000E+00  1.70000000E+00  1.50000000E+00
  1.70000000E+00  1.70000000E+00  1.70000000E+00  1.70000000E+00  1.50000000E+00
  1.70000000E+00  1.70000000E+00  1.50000000E+00  1.30000000E+00  1.30000000E+00
  1.30000000E+00  1.30000000E+00  1.30000000E+00  1.30000000E+00  1.30000000E+00
  1.30000000E+00  1.30000000E+00  1.30000000E+00  1.30000000E+00  1.30000000E+00
  1.30000000E+00  1.30000000E+00  1.30000000E+00  1.30000000E+00  1.30000000E+00
  1.30000000E+00  1.30000000E+00  1.30000000E+00  1.30000000E+00  8.00000000E-01
  1.30000000E+00  1.30000000E+00  1.30000000E+00  1.30000000E+00  1.30000000E+00
  1.30000000E+00  1.30000000E+00  1.30000000E+00  1.30000000E+00  1.30000000E+00
  1.30000000E+00  1.30000000E+00  1.30000000E+00  1.30000000E+00  1.30000000E+00
  1.30000000E+00  1.30000000E+00  1.30000000E+00  1.30000000E+00  1.30000000E+00
  1.30000000E+00  1.30000000E+00  1.30000000E+00  1.30000000E+00  1.30000000E+00
  8.00000000E-01  1.30000000E+00  1.30000000E+00  1.30000000E+00  8.00000000E-01
  1.30000000E+00  1.30000000E+00  1.30000000E+00  1.30000000E+00  1.30000000E+00
  1.30000000E+00  1.30000000E+00  1.30000000E+00  1.30000000E+00  1.30000000E+00
  1.30000000E+00  1.30000000E+00  1.30000000E+00  1.30000000E+00  1.30000000E+00
  1.30000000E+00  1.30000000E+00  1.30000000E+00  1.30000000E+00  1.30000000E+00
  8.00000000E-01  1.30000000E+00  1.30000000E+00  1.30000000E+00  8.00000000E-01
%FLAG SCREEN                                                                    
%FORMAT(5E16.8)                                                                 
  7.20000000E-01  7.20000000E-01  7.20000000E-01  8.50000000E-01  7.20000000E-01
  8.50000000E-01  7.20000000E-01  7.20000000E-01  7.20000000E-01  8.50000000E-01
  7.20000000E-01  7.20000000E-01  7.20000000E-01  7.20000000E-01  8.50000000E-01
  7.20000000E-01  7.20000000E-01  8.50000000E-01  7.20000000E-01  7.20000000E-01
  8.50000000E-01  7.20000000E-01  7.20000000E-01  7.20000000E-01  8.50000000E-01
  7.20000000E-01  8.50000000E-01  7.20000000E-01  7.20000000E-01  7.20000000E-01
  7.20000000E-01  7.90000000E-01  7.20000000E-01  7.20000000E-01  7.20000000E-01
  8.50000000E-01  7.20000000E-01  7.20000000E-01  8.50000000E-01  7.20000000E-01
  7.20000000E-01  7.20000000E-01  7.20000000E-01  7.90000000E-01  8.50000000E-01
  7.20000000E-01  8.50000000E-01  7.20000000E-01  7.20000000E-01  8.50000000E-01
  7.20000000E-01  7.20000000E-01  7.20000000E-01  7.20000000E-01  8.50000000E-01
  7.20000000E-01  7.20000000E-01  8.50000000E-01  8.50000000E-01  8.50000000E-01
  8.50000000E-01  8.50000000E-01  8.50000000E-01  8.50000000E-01  8.50000000E-01
  8.50000000E-01  8.50000000E-01  8.50000000E-01  8.50000000E-01  8.50000000E-01
  8.50000000E-01  8.50000000E-01  8.50000000E-01  8.50000000E-01  8.50000000E-01
  8.50000000E-01  8.50000000E-01  8.50000000E-01  8.50000000E-01  8.50000000E-01
  8.50000000E-01  8.50000000E-01  8.50000000E-01  8.50000000E-01  8.50000000E-01
  8.50000000E-01  8.50000000E-01  8.50000000E-01  8.50000000E-01  8.50000000E-01
  8.50000000E-01  8.50000000E-01  8.50000000E-01  8.50000000E-01  8.50000000E-01
  8.50000000E-01  8.50000000E-01  8.50000000E-01  8.50000000E-01  8.50000000E-01
  8.50000000E-01  8.50000000E-01  8.50000000E-01  8.50000000E-01  8.50000000E-01
  8.50000000E-01  8.50000000E-01  8.50000000E-01  8.50000000E-01  8.50000000E-01
  8.50000000E-01  8.50000000E-01  8.50000000E-01  8.50000000E-01  8.50000000E-01
  8.50000000E-01  8.50000000E-01  8.50000000E-01  8.50000000E-01  8.50000000E-01
  8.50000000E-01  8.50000000E-01  8.50000000E-01  8.50000000E-01  8.50000000E-01
  8.50000000E-01  8.50000000E-01  8.50000000E-01  8.50000000E-01  8.50000000E-01
  8.50000000E-01  8.50000000E-01  8.50000000E-01  8.50000000E-01  8.50000000E-01
%FLAG IPOL                                                                      
%FORMAT(1I8)                                                                    
       0
