MOL
   135
  -3.5950000   1.7960000  -6.8480000  -2.8360000   0.6710000  -6.1640000
  -2.9970000   0.6130000  -4.6290000  -2.1470000  -0.4650000  -4.1470000
  -0.8380000  -0.1430000  -3.9370000  -0.3700000   0.9810000  -4.0520000
  -0.0430000  -1.3710000  -3.5160000   0.6810000  -1.8830000  -4.7610000
   0.8630000  -0.9680000  -2.3240000   2.1020000  -0.4520000  -2.8470000
   2.4370000   0.8360000  -2.3170000   3.7550000   1.2630000  -2.9500000
   4.1570000   2.6810000  -2.5060000   3.6810000   3.7480000  -3.5060000
   5.5950000   2.7530000  -2.3250000   6.3850000   2.6250000  -3.5020000
   3.5430000   3.0050000  -1.1090000   4.3430000   3.9790000  -0.4330000
   3.4140000   1.7140000  -0.2850000   2.8940000   1.9790000   1.1240000
   2.5140000   0.7770000  -0.8920000   1.2380000  -2.0760000  -1.2950000
   1.3890000  -3.4840000  -1.8790000   0.4880000  -1.9840000   0.0760000
   1.2080000  -2.8800000   0.9630000   1.5310000  -2.2960000   2.2210000
   2.8510000  -1.7500000   2.2250000   3.9260000  -2.6490000   2.4900000
   4.1230000  -3.6610000   1.3630000   3.7760000  -3.3060000   3.8750000
   2.3570000  -3.1340000   4.4010000   2.0220000  -4.0180000   5.6060000
   2.5380000  -3.4690000   6.9020000   2.2880000  -5.4860000   5.4650000
   1.3360000  -3.3810000   3.2950000   0.0170000  -3.3710000   3.8720000
  -1.0400000  -2.3240000   0.2220000  -1.3710000  -3.7300000  -0.3080000
  -1.3550000  -2.3910000   1.6440000  -2.0160000  -1.3050000  -0.4170000
  -2.3320000   0.0040000   0.3410000  -1.2520000   1.0790000   0.3090000
  -3.6540000   0.5630000  -0.2220000  -4.7900000   0.5410000   0.4150000
  -4.6810000  -0.0300000   1.6910000  -5.3940000   0.7850000   2.6310000
  -4.5940000   1.9010000   3.0180000  -5.3220000   2.7880000   3.8650000
  -4.4440000   3.9830000   4.2190000  -5.1620000   4.8460000   5.0980000
  -4.4020000   6.0020000   5.4300000  -3.6790000   1.1160000  -1.6600000
  -4.1780000   2.5600000  -1.6410000  -4.5060000   0.1510000  -2.5480000
  -5.8990000   0.2170000  -2.1720000  -4.4460000   0.3930000  -4.0950000
  -5.1350000  -0.7900000  -4.8030000  -5.2400000   1.5580000  -4.3720000
  -3.2870000   1.8700000  -7.8960000  -4.6740000   1.6200000  -6.8400000
  -3.3910000   2.7590000  -6.3690000  -1.7700000   0.7950000  -6.3980000
  -3.1040000  -0.2910000  -6.6140000  -2.6460000   1.5750000  -4.2320000
  -0.7640000  -2.1230000  -3.1790000   1.3020000  -2.7540000  -4.5450000
  -0.0460000  -2.1770000  -5.5270000   1.3170000  -1.1110000  -5.2090000
   0.3590000  -0.1700000  -1.7710000   1.6490000   1.5450000  -2.5920000
   4.5330000   0.5430000  -2.6580000   3.6920000   1.1910000  -4.0430000
   2.5880000   3.7850000  -3.5630000   4.0490000   4.7400000  -3.2210000
   4.0530000   3.5490000  -4.5160000   6.0990000   1.7500000  -4.0920000
   7.4280000   2.5060000  -3.1970000   6.3160000   3.5310000  -4.1110000
   2.5400000   3.4320000  -1.2320000   5.2440000   3.8660000  -0.8020000
   4.3940000   1.2300000  -0.1890000   3.5710000   2.6240000   1.6920000
   2.7730000   1.0380000   1.6700000   1.9060000   2.4510000   1.0910000
   2.2770000  -1.8520000  -1.0000000   0.4910000  -3.8380000  -2.3860000
   2.2060000  -3.5020000  -2.6080000   1.6480000  -4.2160000  -1.1070000
   0.6480000  -0.9630000   0.4340000   0.8560000  -1.4620000   2.4490000
   4.8310000  -2.0310000   2.5120000   4.1540000  -3.1530000   0.3940000
   5.0590000  -4.2140000   1.4970000   3.3100000  -4.3920000   1.3190000
   4.4720000  -2.8270000   4.5760000   4.0840000  -4.3560000   3.8210000
   2.2190000  -2.1080000   4.7690000   0.9880000  -3.9340000   5.6400000
   2.1460000  -4.0870000   7.7140000   3.6310000  -3.5000000   6.8830000
   2.1740000  -2.4440000   7.0120000   3.3660000  -5.6580000   5.5170000
   1.8770000  -5.8350000   4.5160000   1.7830000  -5.9970000   6.2900000
   1.4660000  -4.3760000   2.8540000  -0.5930000  -3.1570000   3.1240000
  -1.3880000  -3.7610000  -1.3990000  -0.6640000  -4.4780000   0.0660000
  -2.3600000  -4.0550000   0.0400000  -2.3280000  -2.4780000   1.7110000
  -2.9800000  -1.8260000  -0.5170000  -1.7200000  -1.0820000  -1.4400000
  -2.4810000  -0.2320000   1.3970000  -0.4020000   0.8040000   0.9370000
  -0.8840000   1.2750000  -0.7010000  -1.6420000   2.0270000   0.6980000
  -5.5980000   0.1660000   3.5120000  -6.3470000   1.1110000   2.1960000
  -6.2300000   3.1370000   3.3580000  -5.6290000   2.2650000   4.7790000
  -4.1620000   4.5200000   3.3060000  -3.5220000   3.6390000   4.7030000
  -3.4750000   5.7170000   5.9390000  -4.1750000   6.5830000   4.5310000
  -4.9960000   6.6230000   6.1070000  -2.6470000   1.1270000  -2.0130000
  -5.2410000   2.6270000  -1.3910000  -4.0250000   3.0410000  -2.6110000
  -3.6320000   3.1470000  -0.8940000  -4.1800000  -0.8770000  -2.3480000
  -5.9400000   0.2110000  -1.1920000  -5.2730000  -0.5950000  -5.8720000
  -4.5640000  -1.7170000  -4.6850000  -6.1440000  -0.9590000  -4.4100000
  -6.0520000   1.4450000  -3.8330000
