%VERSION  VERSION_STAMP = V0001.000  DATE = 07/11/26  14:40:41                  
%FLAG TITLE                                                                     
%FORMAT(20a4)                                                                   
MOL                                                                             
%FLAG POINTERS                                                                  
%FORMAT(10I8)                                                                   
      48      12      22      29      51      40      91      68       0       0
     270       1      29      40      68      21      38      21      15       0
       0       0       0       0       0       0       0       0      48       0
       0
%FLAG ATOM_NAME                                                                 
%FORMAT(20a4)                                                                   
O1  C1  N1  C2  C3  C4  N2  C5  C6  N3  C7  C8  C9  C10 C11 Cl1 C12 C13 C14 N4  
C15 C16 C17 C18 C19 N5  H1  H2  H3  H4  H5  H6  H7  H8  H9  H10 H11 H12 H13 H14 
H15 H16 H17 H18 H19 H20 H21 H22 
%FLAG CHARGE                                                                    
%FORMAT(5E16.8)                                                                 
 -1.11429365E+01  1.15584049E+01 -3.03947964E+00  1.85867460E+00 -1.95707502E+00
  3.14881344E+00 -1.36047692E+01  3.04859079E+00  3.39481449E+00 -1.16258274E+01
  2.76250068E+00 -3.35290320E+00 -1.74934080E+00 -2.84267880E+00  7.72625520E-01
 -1.82951892E+00 -2.86090110E+00  3.39481449E+00  3.04859079E+00 -4.09272858E+00
  4.92002100E-02 -2.42356590E+00 -1.31200560E+00 -4.02712830E+00  1.22089410E-01
 -2.48187726E+00  1.54342881E+00  1.54342881E+00  1.08787131E+00  1.08787131E+00
  6.77869560E-01  6.77869560E-01  8.14536810E-01  8.14536810E-01  8.23647960E-01
  8.23647960E-01  2.47823280E+00  2.46001050E+00  2.67867810E+00  2.75156730E+00
  8.23647960E-01  8.23647960E-01  8.14536810E-01  8.14536810E-01  2.98845720E+00
  2.64223350E+00  2.82445650E+00  3.22534710E+00
%FLAG ATOMIC_NUMBER                                                             
%FORMAT(10I8)                                                                   
       8       6       7       6       6       6       7       6       6       7
       6       6       6       6       6      17       6       6       6       7
       6       6       6       6       6       7       1       1       1       1
       1       1       1       1       1       1       1       1       1       1
       1       1       1       1       1       1       1       1
%FLAG MASS                                                                      
%FORMAT(5E16.8)                                                                 
  1.60000000E+01  1.20100000E+01  1.40100000E+01  1.20100000E+01  1.20100000E+01
  1.20100000E+01  1.40100000E+01  1.20100000E+01  1.20100000E+01  1.40100000E+01
  1.20100000E+01  1.20100000E+01  1.20100000E+01  1.20100000E+01  1.20100000E+01
  3.54500000E+01  1.20100000E+01  1.20100000E+01  1.20100000E+01  1.40100000E+01
  1.20100000E+01  1.20100000E+01  1.20100000E+01  1.20100000E+01  1.20100000E+01
  1.40100000E+01  1.00800000E+00  1.00800000E+00  1.00800000E+00  1.00800000E+00
  1.00800000E+00  1.00800000E+00  1.00800000E+00  1.00800000E+00  1.00800000E+00
  1.00800000E+00  1.00800000E+00  1.00800000E+00  1.00800000E+00  1.00800000E+00
  1.00800000E+00  1.00800000E+00  1.00800000E+00  1.00800000E+00  1.00800000E+00
  1.00800000E+00  1.00800000E+00  1.00800000E+00
%FLAG ATOM_TYPE_INDEX                                                           
%FORMAT(10I8)                                                                   
       1       2       3       4       4       4       5       4       4       6
       2       2       2       2       2       7       2       4       4       8
       2       2       2       2       2       3       9       9      10      10
       9       9       9       9       9       9      11      11      11      11
       9       9       9       9      11      11      11      12
%FLAG NUMBER_EXCLUDED_ATOMS                                                     
%FORMAT(10I8)                                                                   
       7      12      12      12      11      15      17      13      12      17
      15       9       7       7       5       3       4       7       8       8
       8       7       7       6       4       3       3       2       3       2
       1       1       3       2       1       1       1       1       1       1
       3       2       1       1       1       1       1       1
%FLAG NONBONDED_PARM_INDEX                                                      
%FORMAT(10I8)                                                                   
       1       2       4       7      11      16      22      29      37      46
      56      67       2       3       5       8      12      17      23      30
      38      47      57      68       4       5       6       9      13      18
      24      31      39      48      58      69       7       8       9      10
      14      19      25      32      40      49      59      70      11      12
      13      14      15      20      26      33      41      50      60      71
      16      17      18      19      20      21      27      34      42      51
      61      72      22      23      24      25      26      27      28      35
      43      52      62      73      29      30      31      32      33      34
      35      36      44      53      63      74      37      38      39      40
      41      42      43      44      45      54      64      75      46      47
      48      49      50      51      52      53      54      55      65      76
      56      57      58      59      60      61      62      63      64      65
      66      77      67      68      69      70      71      72      73      74
      75      76      77      78
%FLAG RESIDUE_LABEL                                                             
%FORMAT(20a4)                                                                   
MOL 
%FLAG RESIDUE_POINTER                                                           
%FORMAT(10I8)                                                                   
       1
%FLAG BOND_FORCE_CONSTANT                                                       
%FORMAT(5E16.8)                                                                 
  6.52600000E+02  3.56200000E+02  2.63800000E+02  2.95900000E+02  2.32500000E+02
  3.75900000E+02  3.75900000E+02  2.61200000E+02  2.61800000E+02  3.47100000E+02
  3.78600000E+02  3.95700000E+02  1.82000000E+02  4.50700000E+02  3.40200000E+02
  3.53800000E+02  4.16100000E+02  4.00100000E+02  3.40200000E+02  4.00100000E+02
  4.03900000E+02
%FLAG BOND_EQUIL_VALUE                                                          
%FORMAT(5E16.8)                                                                 
  1.21800000E+00  1.37900000E+00  1.46200000E+00  1.36000000E+00  1.53800000E+00
  1.09700000E+00  1.09700000E+00  1.46500000E+00  1.46400000E+00  1.38600000E+00
  1.39800000E+00  1.08600000E+00  1.75000000E+00  1.31700000E+00  1.42800000E+00
  1.38100000E+00  1.37300000E+00  1.08400000E+00  1.42800000E+00  1.08400000E+00
  1.08200000E+00
%FLAG ANGLE_FORCE_CONSTANT                                                      
%FORMAT(5E16.8)                                                                 
  1.13800000E+02  6.53000000E+01  8.35000000E+01  6.66000000E+01  1.12400000E+02
  8.32000000E+01  6.15000000E+01  8.81000000E+01  8.41000000E+01  6.49000000E+01
  4.68000000E+01  4.69000000E+01  8.33000000E+01  6.57000000E+01  6.12000000E+01
  8.35000000E+01  6.52000000E+01  6.51000000E+01  6.12000000E+01  8.62000000E+01
  6.88000000E+01  4.87000000E+01  7.21000000E+01  9.03000000E+01  1.10300000E+02
  7.03000000E+01  4.76000000E+01  7.08000000E+01  8.58000000E+01  7.03000000E+01
  4.90000000E+01  4.90000000E+01  4.76000000E+01  8.70000000E+01  4.78000000E+01
  6.27000000E+01  3.88000000E+01  3.90000000E+01
%FLAG ANGLE_EQUIL_VALUE                                                         
%FORMAT(5E16.8)                                                                 
  2.14762857E+00  2.10643878E+00  2.17921904E+00  2.15146829E+00  1.98199675E+00
  1.94796281E+00  1.90031530E+00  2.04535223E+00  2.01201642E+00  1.94621748E+00
  1.91637234E+00  1.91218355E+00  1.93801443E+00  1.96087826E+00  1.91776860E+00
  1.92789152E+00  2.09404693E+00  1.99857738E+00  1.91619781E+00  2.11097664E+00
  2.09474507E+00  2.09230160E+00  2.08374949E+00  1.96454345E+00  2.14675590E+00
  1.99299233E+00  2.11307103E+00  1.90101344E+00  2.09247614E+00  1.99299233E+00
  2.12511381E+00  2.12511381E+00  2.11307103E+00  2.11760889E+00  2.24239998E+00
  2.01917228E+00  1.89298492E+00  1.87762601E+00
%FLAG DIHEDRAL_FORCE_CONSTANT                                                   
%FORMAT(5E16.8)                                                                 
  2.50000000E+00  1.02000000E+00  1.70000000E-01  1.00000000E-01  0.00000000E+00
  4.80000000E+00  1.65000000E+00  1.00000000E-01  1.55555556E-01  4.75000000E+00
  2.10000000E-01  0.00000000E+00  2.80000000E-01  5.80000000E-01  2.25000000E-01
  7.33000000E-01  3.62500000E+00  3.32000000E-01  4.00000000E+00  1.05000000E+01
  1.10000000E+00
%FLAG DIHEDRAL_PERIODICITY                                                      
%FORMAT(5E16.8)                                                                 
  2.00000000E+00  1.00000000E+00  3.00000000E+00  4.00000000E+00  2.00000000E+00
  2.00000000E+00  2.00000000E+00  3.00000000E+00  3.00000000E+00  2.00000000E+00
  3.00000000E+00  2.00000000E+00  2.00000000E+00  3.00000000E+00  3.00000000E+00
  2.00000000E+00  2.00000000E+00  2.00000000E+00  2.00000000E+00  2.00000000E+00
  2.00000000E+00
%FLAG DIHEDRAL_PHASE                                                            
%FORMAT(5E16.8)                                                                 
  3.14159400E+00  3.14159400E+00  0.00000000E+00  3.14159400E+00  3.14159400E+00
  3.14159400E+00  3.14159400E+00  0.00000000E+00  0.00000000E+00  3.14159400E+00
  0.00000000E+00  0.00000000E+00  3.14159400E+00  0.00000000E+00  0.00000000E+00
  3.14159400E+00  3.14159400E+00  0.00000000E+00  3.14159400E+00  3.14159400E+00
  3.14159400E+00
%FLAG SCEE_SCALE_FACTOR                                                         
%FORMAT(5E16.8)                                                                 
  1.20000000E+00  1.20000000E+00  1.20000000E+00  1.20000000E+00  1.20000000E+00
  1.20000000E+00  1.20000000E+00  1.20000000E+00  1.20000000E+00  1.20000000E+00
  1.20000000E+00  1.20000000E+00  1.20000000E+00  1.20000000E+00  1.20000000E+00
  1.20000000E+00  1.20000000E+00  1.20000000E+00  1.20000000E+00  0.00000000E+00
  0.00000000E+00
%FLAG SCNB_SCALE_FACTOR                                                         
%FORMAT(5E16.8)                                                                 
  2.00000000E+00  2.00000000E+00  2.00000000E+00  2.00000000E+00  2.00000000E+00
  2.00000000E+00  2.00000000E+00  2.00000000E+00  2.00000000E+00  2.00000000E+00
  2.00000000E+00  2.00000000E+00  2.00000000E+00  2.00000000E+00  2.00000000E+00
  2.00000000E+00  2.00000000E+00  2.00000000E+00  2.00000000E+00  0.00000000E+00
  0.00000000E+00
%FLAG SOLTY                                                                     
%FORMAT(5E16.8)                                                                 
  0.00000000E+00  0.00000000E+00  0.00000000E+00  0.00000000E+00  0.00000000E+00
  0.00000000E+00  0.00000000E+00  0.00000000E+00  0.00000000E+00  0.00000000E+00
  0.00000000E+00  0.00000000E+00  0.00000000E+00  0.00000000E+00  0.00000000E+00
%FLAG LENNARD_JONES_ACOEF                                                       
%FORMAT(5E16.8)                                                                 
  3.76435470E+05  5.17507491E+05  6.96551276E+05  5.15491878E+05  7.01106848E+05
  7.02078680E+05  6.30925504E+05  8.43969952E+05  8.52084164E+05  1.02073671E+06
  5.29641935E+05  7.10207765E+05  7.16178718E+05  8.59569453E+05  7.23647490E+05
  6.01376873E+05  8.17329084E+05  8.18751801E+05  9.93125065E+05  8.34792752E+05
  9.54790629E+05  1.11993097E+06  1.49062160E+06  1.50866868E+06  1.80018612E+06
  1.51682150E+06  1.75809166E+06  3.17107030E+06  5.74782316E+05  7.69642101E+05
  7.76656876E+05  9.31115275E+05  7.84008042E+05  9.05243612E+05  1.64251971E+06
  8.49322032E+05  3.86646725E+04  5.63013422E+04  5.45183252E+04  6.97998263E+04
  5.82112737E+04  6.37258620E+04  1.25585106E+05  6.34160397E+04  3.39005767E+03
  5.68021765E+04  8.12662403E+04  7.93773615E+04  1.00235148E+05  8.37616145E+04
  9.27277603E+04  1.79601155E+05  9.11435380E+04  5.22955465E+03  7.94617769E+03
  5.27277400E+04  7.52549148E+04  7.35931098E+04  9.27554496E+04  7.75325560E+04
  8.59636060E+04  1.66104821E+05  8.43518904E+04  4.88692384E+03  7.41026906E+03
  6.90855956E+03  4.36069364E+04  6.27751680E+04  6.11299385E+04  7.75673747E+04
  6.47735754E+04  7.14263282E+04  1.39186903E+05  7.05112106E+04  3.94664935E+03
  6.02863188E+03  5.62610481E+03  4.56536476E+03
%FLAG LENNARD_JONES_BCOEF                                                       
%FORMAT(5E16.8)                                                                 
  4.69350655E+02  4.98871431E+02  5.24668528E+02  5.64804067E+02  5.97113873E+02
  6.77820248E+02  5.62969425E+02  5.90251928E+02  6.72777963E+02  6.63431737E+02
  4.87196412E+02  5.11427129E+02  5.82583725E+02  5.75038595E+02  4.98353106E+02
  6.53166727E+02  6.90283231E+02  7.83721154E+02  7.77671659E+02  6.73442883E+02
  9.06156687E+02  9.38113535E+02  9.81118883E+02  1.11967364E+03  1.10195051E+03
  9.55405536E+02  1.29413346E+03  1.82923847E+03  5.19385932E+02  5.44830041E+02
  6.20851625E+02  6.12468585E+02  5.30834917E+02  7.17661669E+02  1.01742263E+03
  5.65406768E+02  9.23664132E+01  1.01040256E+02  1.12788003E+02  1.14981426E+02
  9.91793374E+01  1.30560951E+02  1.92900608E+02  1.05935811E+02  1.67944276E+01
  1.11953944E+02  1.21392023E+02  1.36094315E+02  1.37787728E+02  1.18970742E+02
  1.57492664E+02  2.30684859E+02  1.27000718E+02  2.08590256E+01  2.57122925E+01
  1.01173582E+02  1.09570372E+02  1.22913863E+02  1.24325688E+02  1.07361937E+02
  1.42233990E+02  2.08087638E+02  1.14599119E+02  1.89134207E+01  2.32899892E+01
  2.10929191E+01  9.20079458E+01  1.00073628E+02  1.12023534E+02  1.13692208E+02
  9.81312253E+01  1.29650812E+02  1.90482178E+02  1.04776275E+02  1.69967767E+01
  2.10068861E+01  1.90347353E+01  1.71467049E+01
%FLAG BONDS_INC_HYDROGEN                                                        
%FORMAT(10I8)                                                                   
       9      78       6       9      81       6      12      84       7      12
      87       7      15      90       6      15      93       6      21      96
       6      21      99       6      24     102       6      24     105       6
      33     108      12      36     111      12      39     114      12      48
     117      12      51     120       6      51     123       6      54     126
       6      54     129       6      63     132      18      66     135      20
      69     138      20      72     141      21
%FLAG BONDS_WITHOUT_HYDROGEN                                                    
%FORMAT(10I8)                                                                   
       0       3       1       3       6       2       3      75       2       6
       9       3       6      57       4       9      12       5      12      15
       5      15      18       8      18      21       8      18      54       8
      21      24       5      24      27       9      27      30      10      27
      51       9      30      33      11      30      48      11      33      36
      11      36      39      11      39      42      11      42      45      13
      42      48      11      51      54       5      57      60      14      60
      63      15      60      75      16      63      66      17      66      69
      19      69      72      17      72      75      16
%FLAG ANGLES_INC_HYDROGEN                                                       
%FORMAT(10I8)                                                                   
       6       9      78       7       6       9      81       7       9      12
      84      11       9      12      87      11      12       9      78      12
      12       9      81      12      12      15      90      12      12      15
      93      12      15      12      84      11      15      12      87      11
      18      15      90      15      18      15      93      15      18      21
      96      15      18      21      99      15      18      54     126      15
      18      54     129      15      21      24     102      12      21      24
     105      12      24      21      96      12      24      21      99      12
      27      24     102      19      27      24     105      19      27      51
     120      19      27      51     123      19      30      33     108      22
      30      48     117      22      33      36     111      22      36      33
     108      22      36      39     114      22      39      36     111      22
      42      39     114      22      42      48     117      22      51      54
     126      12      51      54     129      12      54      51     120      12
      54      51     123      12      60      63     132      27      63      66
     135      31      66      63     132      32      66      69     138      33
      69      66     135      33      69      72     141      35      72      69
     138      31      75      72     141      36      78       9      81      37
      84      12      87      38      90      15      93      37      96      21
      99      37     102      24     105      37     120      51     123      37
     126      54     129      37
%FLAG ANGLES_WITHOUT_HYDROGEN                                                   
%FORMAT(10I8)                                                                   
       0       3       6       1       0       3      75       1       3       6
       9       2       3       6      57       3       3      75      72       4
       3      75      60       4       6       3      75       5       6       9
      12       6       6      57      60       8       9       6      57       9
       9      12      15      10      12      15      18      13      15      18
      21      14      15      18      54      14      18      21      24      13
      18      54      51      13      21      18      54      14      21      24
      27      16      24      27      30      17      24      27      51      18
      27      30      33      20      27      30      48      20      27      51
      54      16      30      27      51      17      30      33      36      21
      30      48      42      21      33      30      48      21      33      36
      39      21      36      39      42      21      39      42      45      23
      39      42      48      21      45      42      48      23      57      60
      63      24      57      60      75      25      60      63      66      26
      60      75      72      28      63      60      75      29      63      66
      69      30      66      69      72      30      69      72      75      34
%FLAG DIHEDRALS_INC_HYDROGEN                                                    
%FORMAT(10I8)                                                                   
       3       6       9      78       5       3       6       9      81       5
       3      75      72     141       7       6       9      12      84       9
       6       9      12      87       9       9      12      15      90       9
       9      12      15      93       9      15      12       9      78       9
      15      12       9      81       9      15      18      21      96      15
      15      18      21      99      15      15      18      54     126      15
      15      18      54     129      15      18      15      12      84       8
      18      15      12      87       8      18      21      24     102       9
      18      21      24     105       9      18      54      51     120       9
      18      54      51     123       9      21      18      15      90      15
      21      18      15      93      15      21      18      54     126      15
      21      18      54     129      15      24      27      51     120      12
      24      27      51     123      12      27      24      21      96       9
      27      24      21      99       9      27      30      33     108      17
      27      30      48     117      17      27      51      54     126       9
      27      51      54     129       9      30      27      24     102      18
      30      27      24     105      18      30      27      51     120      18
      30      27      51     123      18      30      33      36     111      17
      33      30      48     117      17      33      36      39     114      17
      39      36      33     108      17      39      42      48     117      17
      42      39      36     111      17      45      42      39     114      17
      45      42      48     117      17      48      42      39     114      17
      48      30      33     108      17      51      27      24     102      12
      51      27      24     105      12      54      18      15      90      15
      54      18      15      93      15      54      18      21      96      15
      54      18      21      99      15      57       6       9      78      12
      57       6       9      81      12      57      60      63     132      19
      60      63      66     135      19      60      75      72     141       7
      63      66      69     138      19      66      69      72     141      19
      69      66      63     132      19      72      69      66     135      19
      75      72      69     138      19      75      60      63     132      19
      78       9      12      84       9      78       9      12      87       9
      81       9      12      84       9      81       9      12      87       9
      84      12      15      90       9      84      12      15      93       9
      87      12      15      90       9      87      12      15      93       9
      96      21      24     102       9      96      21      24     105       9
      99      21      24     102       9      99      21      24     105       9
     108      33      36     111      17     111      36      39     114      17
     120      51      54     126       9     120      51      54     129       9
     123      51      54     126       9     123      51      54     129       9
     132      63      66     135      19     135      66      69     138      19
     138      69      72     141      19      30      36     -33    -108      21
      33      39     -36    -111      21      36      42     -39    -114      21
      30      42     -48    -117      21      66      60     -63    -132      21
      69      63     -66    -135      21      66      72     -69    -138      21
      69     141     -72     -75      21
%FLAG DIHEDRALS_WITHOUT_HYDROGEN                                                
%FORMAT(10I8)                                                                   
       0       3       6       9       1       0       3       6      57       1
       0       3      75      72       1       0       3      75      60       1
       3       6       9      12       2       3       6      -9      12       3
       3       6      -9      12       4       3       6     -57      60       6
       3      75      72      69       7       3      75     -60      57       7
       3      75      60      63       7       6       3      75      72       1
       6       3     -75      60       1       6       9      12      15       8
       6      57      60      63      10       6      57     -60      75      10
       9       6       3      75       1       9       6      57      60       6
       9      12      15      18      11      12       9       6      57      12
      12      15      18      21      13      12      15     -18      21      14
      12      15      18      54      13      12      15     -18      54      14
      15      18      21      24      13      15      18     -21      24      14
      15      18      54      51      13      15      18     -54      51      14
      18      21      24      27       9      18      54     -51      27       9
      21      18      54      51      13      21      18     -54      51      14
      21      24      27      30      12      21      24     -27      51      12
      24      21      18      54      13      24      21     -18      54      14
      24      27      30      33      16      24      27      30      48      16
      24      27     -51      54      12      27      30      33      36      17
      27      30      48      42      17      30      27      51      54      12
      30      33      36      39      17      30      48     -42      39      17
      30      48      42      45      17      33      30      27      51      16
      33      30      48      42      17      33      36     -39      42      17
      36      33      30      48      17      36      39      42      45      17
      36      39     -42      48      17      48      30      27      51      16
      57       6      -3      75       1      57      60      63      66      19
      57      60      75      72       7      60      63      66      69      19
      60      75     -72      69       7      63      60      75      72       7
      63      66     -69      72      19      66      63      60      75      19
      66      69     -72      75      19       0       3     -75      -6      20
       3       9      -6     -57      21      24      51     -27     -30      21
      33      48     -30     -27      21      39      48     -42     -45      21
      63      75     -60     -57      21       3      60     -75     -72      21
%FLAG EXCLUDED_ATOMS_LIST                                                       
%FORMAT(10I8)                                                                   
       2       3       4      20      21      25      26       3       4       5
      20      21      22      24      25      26      27      28      48       4
       5       6      20      21      22      25      26      27      28      29
      30       5       6       7      20      21      26      27      28      29
      30      31      32       6       7       8      19      20      27      28
      29      30      31      32       7       8       9      18      19      27
      28      29      30      31      32      33      34      43      44       8
       9      10      18      19      29      30      31      32      33      34
      35      36      41      42      43      44       9      10      11      18
      19      31      32      33      34      35      36      43      44      10
      11      12      17      18      19      33      34      35      36      41
      42      11      12      13      15      17      18      19      33      34
      35      36      37      40      41      42      43      44      12      13
      14      15      16      17      18      19      35      36      37      38
      40      41      42      13      14      15      17      18      37      38
      39      40      14      15      16      17      37      38      39      15
      16      17      37      38      39      40      16      17      38      39
      40      17      39      40      18      37      39      40      19      35
      36      41      42      43      44      31      32      33      34      41
      42      43      44      21      22      23      25      26      27      28
      45      22      23      24      25      26      45      46      48      23
      24      25      26      45      46      47      24      25      26      45
      46      47      48      25      26      45      46      47      48      26
      46      47      48      45      47      48      28      29      30      29
      30      30      31      32      31      32      32       0      34      35
      36      35      36      36       0      38      39       0       0      42
      43      44      43      44      44       0      46      47      48       0
%FLAG HBOND_ACOEF                                                               
%FORMAT(5E16.8)                                                                 

%FLAG HBOND_BCOEF                                                               
%FORMAT(5E16.8)                                                                 

%FLAG HBCUT                                                                     
%FORMAT(5E16.8)                                                                 

%FLAG AMBER_ATOM_TYPE                                                           
%FORMAT(20a4)                                                                   
o   c   n   c3  c3  c3  n3  c3  c3  nh  ca  ca  ca  ca  ca  cl  ca  c3  c3  nc  
cd  cd  cc  cc  cd  n   h1  h1  hc  hc  h1  h1  h1  h1  h1  h1  ha  ha  ha  ha  
h1  h1  h1  h1  ha  ha  ha  h4  
%FLAG TREE_CHAIN_CLASSIFICATION                                                 
%FORMAT(20a4)                                                                   
BLA BLA BLA BLA BLA BLA BLA BLA BLA BLA BLA BLA BLA BLA BLA BLA BLA BLA BLA BLA 
BLA BLA BLA BLA BLA BLA BLA BLA BLA BLA BLA BLA BLA BLA BLA BLA BLA BLA BLA BLA 
BLA BLA BLA BLA BLA BLA BLA BLA 
%FLAG JOIN_ARRAY                                                                
%FORMAT(10I8)                                                                   
       0       0       0       0       0       0       0       0       0       0
       0       0       0       0       0       0       0       0       0       0
       0       0       0       0       0       0       0       0       0       0
       0       0       0       0       0       0       0       0       0       0
       0       0       0       0       0       0       0       0
%FLAG IROTAT                                                                    
%FORMAT(10I8)                                                                   
       0       0       0       0       0       0       0       0       0       0
       0       0       0       0       0       0       0       0       0       0
       0       0       0       0       0       0       0       0       0       0
       0       0       0       0       0       0       0       0       0       0
       0       0       0       0       0       0       0       0
%FLAG RADIUS_SET                                                                
%FORMAT(1a80)                                                                   
modified Bondi radii (mbondi)                                                   
%FLAG RADII                                                                     
%FORMAT(5E16.8)                                                                 
  1.50000000E+00  1.70000000E+00  1.55000000E+00  1.70000000E+00  1.70000000E+00
  1.70000000E+00  1.55000000E+00  1.70000000E+00  1.70000000E+00  1.55000000E+00
  1.70000000E+00  1.70000000E+00  1.70000000E+00  1.70000000E+00  1.70000000E+00
  1.70000000E+00  1.70000000E+00  1.70000000E+00  1.70000000E+00  1.55000000E+00
  1.70000000E+00  1.70000000E+00  1.70000000E+00  1.70000000E+00  1.70000000E+00
  1.55000000E+00  1.30000000E+00  1.30000000E+00  1.30000000E+00  1.30000000E+00
  1.30000000E+00  1.30000000E+00  1.30000000E+00  1.30000000E+00  1.30000000E+00
  1.30000000E+00  1.30000000E+00  1.30000000E+00  1.30000000E+00  1.30000000E+00
  1.30000000E+00  1.30000000E+00  1.30000000E+00  1.30000000E+00  1.30000000E+00
  1.30000000E+00  1.30000000E+00  1.30000000E+00
%FLAG SCREEN                                                                    
%FORMAT(5E16.8)                                                                 
  8.50000000E-01  7.20000000E-01  7.90000000E-01  7.20000000E-01  7.20000000E-01
  7.20000000E-01  7.90000000E-01  7.20000000E-01  7.20000000E-01  7.90000000E-01
  7.20000000E-01  7.20000000E-01  7.20000000E-01  7.20000000E-01  7.20000000E-01
  8.00000000E-01  7.20000000E-01  7.20000000E-01  7.20000000E-01  7.90000000E-01
  7.20000000E-01  7.20000000E-01  7.20000000E-01  7.20000000E-01  7.20000000E-01
  7.90000000E-01  8.50000000E-01  8.50000000E-01  8.50000000E-01  8.50000000E-01
  8.50000000E-01  8.50000000E-01  8.50000000E-01  8.50000000E-01  8.50000000E-01
  8.50000000E-01  8.50000000E-01  8.50000000E-01  8.50000000E-01  8.50000000E-01
  8.50000000E-01  8.50000000E-01  8.50000000E-01  8.50000000E-01  8.50000000E-01
  8.50000000E-01  8.50000000E-01  8.50000000E-01
%FLAG IPOL                                                                      
%FORMAT(1I8)                                                                    
       0
