MOL
    48
  -0.7410000  -3.2880000  -1.0850000  -0.8310000  -2.9310000  -2.2490000
   0.0040000  -2.0400000  -2.9470000   1.1600000  -1.3540000  -2.4200000
   1.0640000   0.1680000  -2.5420000  -0.0950000   0.7760000  -1.7430000
  -0.0210000   0.4880000  -0.3030000  -1.3270000   0.7550000   0.3430000
  -1.3230000   0.4770000   1.8630000  -0.2310000   1.2090000   2.5350000
  -0.3320000   1.4180000   3.9070000   0.7020000   1.0900000   4.7990000
   0.5880000   1.3120000   6.1770000  -0.5710000   1.8800000   6.6970000
  -1.6030000   2.2230000   5.8320000  -3.0380000   2.9400000   6.4600000
  -1.4860000   1.9980000   4.4580000   1.0860000   1.0340000   1.9000000
   1.0130000   1.2980000   0.3780000  -0.4120000  -1.9050000  -4.2620000
  -1.4530000  -2.6770000  -4.3300000  -2.3140000  -2.9260000  -5.5050000
  -3.3500000  -3.7700000  -5.3540000  -3.6190000  -4.4190000  -4.0820000
  -2.8240000  -4.1790000  -3.0280000  -1.7700000  -3.3200000  -3.1760000
   2.0270000  -1.7090000  -2.9890000   1.3150000  -1.6560000  -1.3780000
   0.9350000   0.4420000  -3.5970000   2.0160000   0.6110000  -2.2290000
  -1.0290000   0.3680000  -2.1520000  -0.1330000   1.8580000  -1.9210000
  -1.6230000   1.8000000   0.1740000  -2.0960000   0.1190000  -0.1110000
  -2.3090000   0.7530000   2.2520000  -1.1940000  -0.5990000   2.0410000
   1.6170000   0.6290000   4.4390000   1.4040000   1.0370000   6.8390000
  -0.6610000   2.0530000   7.7650000  -2.2970000   2.3110000   3.8070000
   1.8140000   1.7380000   2.3220000   1.4510000   0.0150000   2.0790000
   2.0010000   1.0750000  -0.0400000   0.8220000   2.3670000   0.2140000
  -2.0770000  -2.4230000  -6.4310000  -4.0130000  -3.9880000  -6.1850000
  -4.4650000  -5.0940000  -4.0080000  -2.9640000  -4.6290000  -2.0510000
