MOL
    11
  -1.8970000  -0.0030000  -0.8530000  -0.9540000   0.6350000  -1.6520000
  -0.0530000  -0.1480000  -2.3550000  -0.0360000  -1.4980000  -2.3100000
  -0.9640000  -2.0890000  -1.5260000  -1.9050000  -1.3920000  -0.7860000
  -2.6200000   0.5780000  -0.2870000  -0.9210000   1.7160000  -1.7260000
   0.7030000   0.3020000  -2.9930000  -0.9290000  -3.1750000  -1.5070000
  -2.6270000  -1.9190000  -0.1730000
