MOL
   101
  -1.8910000   3.6790000  -5.1550000  -2.5420000   2.4590000  -4.7960000
  -1.6990000   1.4150000  -4.5770000  -0.4790000   1.4500000  -4.6880000
  -2.4870000   0.2030000  -4.1350000  -1.5830000  -1.0320000  -3.9350000
  -0.9080000  -0.8910000  -2.5620000  -1.3770000  -1.3530000  -1.5220000
   0.2570000  -0.1360000  -2.5800000   1.0690000  -0.0860000  -1.4210000
   2.3130000  -0.8590000  -1.6660000   3.0840000  -1.1910000  -0.4080000
   4.3330000  -0.6100000  -0.1530000   5.0320000  -0.9140000   1.0190000
   4.5080000  -1.8190000   1.9480000   5.1950000  -2.1350000   3.2070000
   6.4840000  -2.4710000   3.3890000   7.5240000  -2.6480000   2.3680000
   8.7550000  -2.0000000   2.5350000   9.7770000  -2.1680000   1.5970000
   9.5790000  -2.9910000   0.4900000   8.3630000  -3.6520000   0.3230000
   7.3410000  -3.4860000   1.2620000   3.2560000  -2.3920000   1.6980000
   2.5540000  -2.0850000   0.5300000   1.3760000   1.3020000  -1.0060000
   0.2640000   2.1360000  -0.3090000   0.9020000   3.3990000   0.0160000
  -0.9280000   2.4330000  -1.2370000  -1.9540000   3.4130000  -0.7080000
  -1.7420000   4.7950000  -0.8130000  -2.6930000   5.6970000  -0.3370000
  -3.8660000   5.2290000   0.2520000  -4.0870000   3.8580000   0.3640000
  -3.1370000   2.9540000  -0.1140000  -0.1810000   1.4580000   1.0120000
   0.0230000   2.0190000   2.0920000  -0.8230000   0.2480000   0.9030000
  -1.3450000  -0.4660000   2.0560000  -2.6970000   0.0650000   2.4700000
  -2.9790000   1.2370000   3.1570000  -4.3130000   1.5500000   3.4260000
  -5.3460000   0.7000000   3.0050000  -5.0590000  -0.4780000   2.3140000
  -3.7310000  -0.7870000   2.0630000  -3.1940000  -1.9820000   1.3460000
  -1.7120000  -1.9590000   1.7700000  -0.8820000  -2.6010000   0.8080000
  -2.3270000  -2.4030000  -4.1250000  -2.6910000  -2.5880000  -5.6190000
  -1.3990000  -3.5800000  -3.7480000  -3.6270000  -2.5090000  -3.3060000
  -1.4010000   3.5750000  -6.1300000  -2.6540000   4.4610000  -5.2300000
  -1.1680000   3.9730000  -4.3880000  -3.0060000   0.4580000  -3.2030000
  -3.2370000   0.0200000  -4.9100000  -0.7760000  -1.0170000  -4.6830000
   0.5410000   0.3600000  -3.4320000   2.0610000  -1.8180000  -2.1400000
   2.9550000  -0.3320000  -2.3860000   4.7700000   0.0950000  -0.8570000
   5.9900000  -0.4320000   1.2030000   4.5550000  -2.0790000   4.0860000
   6.8270000  -2.6460000   4.4070000   8.9230000  -1.3530000   3.3930000
  10.7260000  -1.6560000   1.7330000  10.3730000  -3.1210000  -0.2400000
   8.2070000  -4.2980000  -0.5370000   6.4010000  -4.0140000   1.1220000
   2.8140000  -3.0860000   2.4090000   1.5850000  -2.5470000   0.3580000
   2.2070000   1.2840000  -0.2880000   1.7680000   1.8670000  -1.8640000
   0.6200000   3.5940000   0.9360000  -1.4630000   1.5150000  -1.4920000
  -0.5520000   2.8430000  -2.1830000  -0.8260000   5.1740000  -1.2610000
  -2.5160000   6.7660000  -0.4220000  -4.6050000   5.9320000   0.6280000
  -4.9960000   3.4890000   0.8300000  -3.3280000   1.8880000  -0.0070000
  -0.8120000  -0.2270000   0.0040000  -0.6230000  -0.4050000   2.8780000
  -2.1820000   1.9050000   3.4730000  -4.5510000   2.4670000   3.9610000
  -6.3790000   0.9630000   3.2210000  -5.8590000  -1.1360000   1.9900000
  -3.6750000  -2.9110000   1.6700000  -3.3190000  -1.8760000   0.2640000
  -1.6140000  -2.5200000   2.7090000  -1.0830000  -2.2070000  -0.0690000
  -3.4160000  -1.8450000  -5.9640000  -1.8020000  -2.5110000  -6.2540000
  -3.1380000  -3.5730000  -5.7960000  -1.1770000  -3.6060000  -2.6770000
  -0.4470000  -3.5210000  -4.2880000  -1.8610000  -4.5420000  -3.9980000
  -3.4420000  -2.4530000  -2.2300000  -4.3370000  -1.7160000  -3.5670000
  -4.1290000  -3.4660000  -3.4940000
