%VERSION  VERSION_STAMP = V0001.000  DATE = 07/11/26  13:28:23                  
%FLAG TITLE                                                                     
%FORMAT(20a4)                                                                   
MOL                                                                             
%FLAG POINTERS                                                                  
%FORMAT(10I8)                                                                   
     101      12      49      56     104      79     208     134       0       0
     560       1      56      79     134      22      45      50      15       0
       0       0       0       0       0       0       0       0     101       0
       0
%FLAG ATOM_NAME                                                                 
%FORMAT(20a4)                                                                   
C1  O1  C2  O2  C3  C4  C5  O3  N1  N2  C6  C7  C8  C9  C10 C11 C12 C13 C14 C15 
C16 C17 C18 C19 C20 C21 C22 O4  C23 C24 C25 C26 C27 C28 C29 C30 O5  N3  C31 C32 
C33 C34 C35 C36 C37 C38 C39 O6  C40 C41 C42 C43 H1  H2  H3  H4  H5  H6  H7  H8  
H9  H10 H11 H12 H13 H14 H15 H16 H17 H18 H19 H20 H21 H22 H23 H24 H25 H26 H27 H28 
H29 H30 H31 H32 H33 H34 H35 H36 H37 H38 H39 H40 H41 H42 H43 H44 H45 H46 H47 H48 
H49 
%FLAG CHARGE                                                                    
%FORMAT(5E16.8)                                                                 
  2.27232081E+00 -7.79732217E+00  1.15365381E+01 -1.04049333E+01 -2.43085482E+00
 -2.18120931E+00  1.25205423E+01 -1.13360928E+01 -8.15083479E+00 -8.53896978E+00
  3.70094913E+00 -1.82769669E+00 -2.13200910E+00 -2.20489830E+00 -9.62137440E-01
 -1.88054136E+00 -1.91698596E+00 -1.10791584E+00 -2.13200910E+00 -2.42356590E+00
 -2.33245440E+00 -2.42356590E+00 -2.13200910E+00 -2.20489830E+00 -2.13200910E+00
  2.31058764E+00  2.01903084E+00 -1.09844024E+01 -1.14982713E+00 -1.64547369E+00
 -2.23223175E+00 -2.40534360E+00 -2.35067670E+00 -2.40534360E+00 -2.23223175E+00
  1.17187611E+01 -1.16094273E+01 -9.71066367E+00  2.20489830E+00 -1.99169739E+00
 -1.73111850E+00 -2.49645510E+00 -2.33245440E+00 -2.25956520E+00 -1.57258449E+00
 -1.27738323E+00  2.51649963E+00 -1.09297355E+01 -6.74225100E-01 -1.77545336E+00
 -1.77545336E+00 -1.77545336E+00  1.02713638E+00  1.02713638E+00  1.02713638E+00
  1.82587446E+00  1.82587446E+00  1.45231731E+00  5.89491405E+00  9.42092910E-01
  9.42092910E-01  2.72423385E+00  2.51467740E+00  2.35067670E+00  2.29600980E+00
  2.50556625E+00  2.38712130E+00  2.36889900E+00  2.38712130E+00  2.50556625E+00
  2.51467740E+00  2.72423385E+00  1.37942811E+00  1.37942811E+00  7.99958970E+00
  1.16987166E+00  1.16987166E+00  2.58756660E+00  2.38712130E+00  2.36889900E+00
  2.38712130E+00  2.58756660E+00  6.40513845E+00  1.57987341E+00  2.89734570E+00
  2.38712130E+00  2.33245440E+00  2.38712130E+00  1.15164936E+00  1.15164936E+00
  1.39765041E+00  7.76269980E+00  7.94291835E-01  7.94291835E-01  7.94291835E-01
  7.94291835E-01  7.94291835E-01  7.94291835E-01  7.94291835E-01  7.94291835E-01
  7.94291835E-01
%FLAG ATOMIC_NUMBER                                                             
%FORMAT(10I8)                                                                   
       6       8       6       8       6       6       6       8       7       7
       6       6       6       6       6       6       6       6       6       6
       6       6       6       6       6       6       6       8       6       6
       6       6       6       6       6       6       8       7       6       6
       6       6       6       6       6       6       6       8       6       6
       6       6       1       1       1       1       1       1       1       1
       1       1       1       1       1       1       1       1       1       1
       1       1       1       1       1       1       1       1       1       1
       1       1       1       1       1       1       1       1       1       1
       1       1       1       1       1       1       1       1       1       1
       1
%FLAG MASS                                                                      
%FORMAT(5E16.8)                                                                 
  1.20100000E+01  1.60000000E+01  1.20100000E+01  1.60000000E+01  1.20100000E+01
  1.20100000E+01  1.20100000E+01  1.60000000E+01  1.40100000E+01  1.40100000E+01
  1.20100000E+01  1.20100000E+01  1.20100000E+01  1.20100000E+01  1.20100000E+01
  1.20100000E+01  1.20100000E+01  1.20100000E+01  1.20100000E+01  1.20100000E+01
  1.20100000E+01  1.20100000E+01  1.20100000E+01  1.20100000E+01  1.20100000E+01
  1.20100000E+01  1.20100000E+01  1.60000000E+01  1.20100000E+01  1.20100000E+01
  1.20100000E+01  1.20100000E+01  1.20100000E+01  1.20100000E+01  1.20100000E+01
  1.20100000E+01  1.60000000E+01  1.40100000E+01  1.20100000E+01  1.20100000E+01
  1.20100000E+01  1.20100000E+01  1.20100000E+01  1.20100000E+01  1.20100000E+01
  1.20100000E+01  1.20100000E+01  1.60000000E+01  1.20100000E+01  1.20100000E+01
  1.20100000E+01  1.20100000E+01  1.00800000E+00  1.00800000E+00  1.00800000E+00
  1.00800000E+00  1.00800000E+00  1.00800000E+00  1.00800000E+00  1.00800000E+00
  1.00800000E+00  1.00800000E+00  1.00800000E+00  1.00800000E+00  1.00800000E+00
  1.00800000E+00  1.00800000E+00  1.00800000E+00  1.00800000E+00  1.00800000E+00
  1.00800000E+00  1.00800000E+00  1.00800000E+00  1.00800000E+00  1.00800000E+00
  1.00800000E+00  1.00800000E+00  1.00800000E+00  1.00800000E+00  1.00800000E+00
  1.00800000E+00  1.00800000E+00  1.00800000E+00  1.00800000E+00  1.00800000E+00
  1.00800000E+00  1.00800000E+00  1.00800000E+00  1.00800000E+00  1.00800000E+00
  1.00800000E+00  1.00800000E+00  1.00800000E+00  1.00800000E+00  1.00800000E+00
  1.00800000E+00  1.00800000E+00  1.00800000E+00  1.00800000E+00  1.00800000E+00
  1.00800000E+00
%FLAG ATOM_TYPE_INDEX                                                           
%FORMAT(10I8)                                                                   
       1       2       3       4       1       1       3       4       5       6
       1       3       3       3       3       3       3       3       3       3
       3       3       3       3       3       1       1       7       1       3
       3       3       3       3       3       3       4       5       1       3
       3       3       3       3       3       1       1       7       1       1
       1       1       8       8       8       9       9       9      10       8
       8      11      11      11      11      11      11      11      11      11
      11      11       8       8      12       9       9      11      11      11
      11      11      10       8      11      11      11      11       9       9
       8      12       9       9       9       9       9       9       9       9
       9
%FLAG NUMBER_EXCLUDED_ATOMS                                                     
%FORMAT(10I8)                                                                   
       7       9      11       4      11      21      13       5      12      14
      14      12      10       9      11      10      10      11       9       7
       7       5       5       5       5      15      15      10      15      12
      10       7       7       5       6      12       3      10      15      16
      10       7       7       8      10       8       7       5      15      12
      11      10       2       1       1       2       1       1       1       1
       1       1       1       1       1       1       1       1       1       1
       1       1       1       1       1       1       1       1       1       1
       1       1       1       1       1       1       1       1       2       1
       1       1       2       1       1       2       1       1       2       1
       1
%FLAG NONBONDED_PARM_INDEX                                                      
%FORMAT(10I8)                                                                   
       1       2       4       7      11      16      22      29      37      46
      56      67       2       3       5       8      12      17      23      30
      38      47      57      68       4       5       6       9      13      18
      24      31      39      48      58      69       7       8       9      10
      14      19      25      32      40      49      59      70      11      12
      13      14      15      20      26      33      41      50      60      71
      16      17      18      19      20      21      27      34      42      51
      61      72      22      23      24      25      26      27      28      35
      43      52      62      73      29      30      31      32      33      34
      35      36      44      53      63      74      37      38      39      40
      41      42      43      44      45      54      64      75      46      47
      48      49      50      51      52      53      54      55      65      76
      56      57      58      59      60      61      62      63      64      65
      66      77      67      68      69      70      71      72      73      74
      75      76      77      78
%FLAG RESIDUE_LABEL                                                             
%FORMAT(20a4)                                                                   
MOL 
%FLAG RESIDUE_POINTER                                                           
%FORMAT(10I8)                                                                   
       1
%FLAG BOND_FORCE_CONSTANT                                                       
%FORMAT(5E16.8)                                                                 
  2.84800000E+02  3.75900000E+02  3.72900000E+02  6.52600000E+02  2.43200000E+02
  2.32500000E+02  3.75900000E+02  3.56200000E+02  2.50900000E+02  5.27300000E+02
  2.61200000E+02  2.50300000E+02  3.78600000E+02  3.95700000E+02  2.86500000E+02
  4.52200000E+02  3.91400000E+02  2.86500000E+02  3.91400000E+02  2.93400000E+02
  5.63500000E+02  2.63800000E+02
%FLAG BOND_EQUIL_VALUE                                                          
%FORMAT(5E16.8)                                                                 
  1.43200000E+00  1.09700000E+00  1.35800000E+00  1.21800000E+00  1.52400000E+00
  1.53800000E+00  1.09700000E+00  1.37900000E+00  1.40400000E+00  1.01300000E+00
  1.46500000E+00  1.51600000E+00  1.39800000E+00  1.08600000E+00  1.47600000E+00
  1.35100000E+00  1.08800000E+00  1.47600000E+00  1.08800000E+00  1.42300000E+00
  9.73000000E-01  1.46200000E+00
%FLAG ANGLE_FORCE_CONSTANT                                                      
%FORMAT(5E16.8)                                                                 
  6.69000000E+01  6.24000000E+01  1.14800000E+02  8.64000000E+01  6.53000000E+01
  4.74000000E+01  8.46000000E+01  6.49000000E+01  4.68000000E+01  8.43000000E+01
  8.37000000E+01  4.87000000E+01  1.13800000E+02  8.42000000E+01  6.01000000E+01
  8.35000000E+01  6.12000000E+01  8.33000000E+01  6.57000000E+01  6.56000000E+01
  4.75000000E+01  6.88000000E+01  4.87000000E+01  6.66000000E+01  6.57000000E+01
  4.74000000E+01  6.57000000E+01  5.04000000E+01  5.04000000E+01  6.66000000E+01
  4.74000000E+01  8.46000000E+01  4.69000000E+01  4.90000000E+01  6.52000000E+01
  8.56000000E+01  4.73000000E+01  6.53000000E+01  8.35000000E+01  8.32000000E+01
  6.15000000E+01  4.61000000E+01  6.25000000E+01  3.88000000E+01  3.90000000E+01
%FLAG ANGLE_EQUIL_VALUE                                                         
%FORMAT(5E16.8)                                                                 
  2.02423373E+00  1.91602327E+00  2.15111922E+00  1.93242938E+00  1.93801443E+00
  1.89839544E+00  2.15024656E+00  1.94621748E+00  1.91637234E+00  2.01027109E+00
  2.09614133E+00  2.05163542E+00  2.14762857E+00  1.94970814E+00  2.04622489E+00
  1.95756213E+00  1.91776860E+00  1.93801443E+00  1.96087826E+00  2.10783504E+00
  1.91218355E+00  2.09474507E+00  2.09230160E+00  2.10870771E+00  2.22564482E+00
  2.00939843E+00  2.22564482E+00  2.06332913E+00  2.06332913E+00  2.10870771E+00
  2.00939843E+00  1.92317913E+00  1.91218355E+00  1.87204096E+00  1.95599133E+00
  1.89874451E+00  1.92806605E+00  2.10643878E+00  1.96140185E+00  1.94796281E+00
  1.90031530E+00  2.05390434E+00  1.92440086E+00  1.89298492E+00  1.87762601E+00
%FLAG DIHEDRAL_FORCE_CONSTANT                                                   
%FORMAT(5E16.8)                                                                 
  1.40000000E+00  2.70000000E+00  1.58000000E+00  3.18000000E+00  7.30000000E-01
  0.00000000E+00  3.83333333E-01  1.55555556E-01  1.00000000E-01  7.40000000E-01
  2.70000000E-01  5.50000000E-01  8.30000000E-01  4.00000000E-02  7.10000000E-01
  0.00000000E+00  1.10000000E-01  2.90000000E-01  1.30000000E-01  2.50000000E+00
  8.00000000E-02  1.07500000E+00  2.00000000E+00  3.00000000E-01  0.00000000E+00
  2.10000000E-01  2.80000000E-01  5.80000000E-01  2.25000000E-01  3.62500000E+00
  5.05000000E-01  7.00000000E-01  8.51000000E+00  6.65000000E+00  0.00000000E+00
  2.45000000E-01  5.00000000E-01  2.60000000E-01  2.50000000E-01  5.10000000E-01
  1.80000000E-01  1.66666667E-01  1.02000000E+00  1.70000000E-01  1.00000000E-01
  1.01000000E-01  1.20000000E-01  1.13000000E-01  1.10000000E+00  1.05000000E+01
%FLAG DIHEDRAL_PERIODICITY                                                      
%FORMAT(5E16.8)                                                                 
  1.00000000E+00  2.00000000E+00  1.00000000E+00  2.00000000E+00  3.00000000E+00
  2.00000000E+00  3.00000000E+00  3.00000000E+00  3.00000000E+00  1.00000000E+00
  2.00000000E+00  3.00000000E+00  1.00000000E+00  3.00000000E+00  2.00000000E+00
  4.00000000E+00  1.00000000E+00  2.00000000E+00  3.00000000E+00  2.00000000E+00
  3.00000000E+00  2.00000000E+00  1.00000000E+00  3.00000000E+00  2.00000000E+00
  3.00000000E+00  2.00000000E+00  3.00000000E+00  3.00000000E+00  2.00000000E+00
  2.00000000E+00  2.00000000E+00  2.00000000E+00  2.00000000E+00  3.00000000E+00
  2.00000000E+00  1.00000000E+00  2.00000000E+00  1.00000000E+00  1.00000000E+00
  3.00000000E+00  3.00000000E+00  1.00000000E+00  3.00000000E+00  4.00000000E+00
  3.00000000E+00  3.00000000E+00  3.00000000E+00  2.00000000E+00  2.00000000E+00
%FLAG DIHEDRAL_PHASE                                                            
%FORMAT(5E16.8)                                                                 
  3.14159400E+00  3.14159400E+00  3.14159400E+00  3.14159400E+00  0.00000000E+00
  3.14159400E+00  0.00000000E+00  0.00000000E+00  0.00000000E+00  0.00000000E+00
  3.14159400E+00  3.14159400E+00  0.00000000E+00  3.14159400E+00  3.14159400E+00
  3.14159400E+00  0.00000000E+00  3.14159400E+00  0.00000000E+00  3.14159400E+00
  0.00000000E+00  0.00000000E+00  0.00000000E+00  0.00000000E+00  0.00000000E+00
  0.00000000E+00  3.14159400E+00  0.00000000E+00  0.00000000E+00  3.14159400E+00
  3.14159400E+00  3.14159400E+00  3.14159400E+00  3.14159400E+00  0.00000000E+00
  3.14159400E+00  0.00000000E+00  3.14159400E+00  0.00000000E+00  0.00000000E+00
  0.00000000E+00  0.00000000E+00  3.14159400E+00  0.00000000E+00  3.14159400E+00
  0.00000000E+00  0.00000000E+00  0.00000000E+00  3.14159400E+00  3.14159400E+00
%FLAG SCEE_SCALE_FACTOR                                                         
%FORMAT(5E16.8)                                                                 
  1.20000000E+00  1.20000000E+00  1.20000000E+00  1.20000000E+00  1.20000000E+00
  1.20000000E+00  1.20000000E+00  1.20000000E+00  1.20000000E+00  1.20000000E+00
  1.20000000E+00  1.20000000E+00  1.20000000E+00  1.20000000E+00  1.20000000E+00
  1.20000000E+00  1.20000000E+00  1.20000000E+00  1.20000000E+00  1.20000000E+00
  1.20000000E+00  1.20000000E+00  1.20000000E+00  1.20000000E+00  1.20000000E+00
  1.20000000E+00  1.20000000E+00  1.20000000E+00  1.20000000E+00  1.20000000E+00
  1.20000000E+00  1.20000000E+00  1.20000000E+00  1.20000000E+00  1.20000000E+00
  1.20000000E+00  1.20000000E+00  1.20000000E+00  1.20000000E+00  1.20000000E+00
  1.20000000E+00  1.20000000E+00  1.20000000E+00  1.20000000E+00  1.20000000E+00
  1.20000000E+00  1.20000000E+00  1.20000000E+00  0.00000000E+00  0.00000000E+00
%FLAG SCNB_SCALE_FACTOR                                                         
%FORMAT(5E16.8)                                                                 
  2.00000000E+00  2.00000000E+00  2.00000000E+00  2.00000000E+00  2.00000000E+00
  2.00000000E+00  2.00000000E+00  2.00000000E+00  2.00000000E+00  2.00000000E+00
  2.00000000E+00  2.00000000E+00  2.00000000E+00  2.00000000E+00  2.00000000E+00
  2.00000000E+00  2.00000000E+00  2.00000000E+00  2.00000000E+00  2.00000000E+00
  2.00000000E+00  2.00000000E+00  2.00000000E+00  2.00000000E+00  2.00000000E+00
  2.00000000E+00  2.00000000E+00  2.00000000E+00  2.00000000E+00  2.00000000E+00
  2.00000000E+00  2.00000000E+00  2.00000000E+00  2.00000000E+00  2.00000000E+00
  2.00000000E+00  2.00000000E+00  2.00000000E+00  2.00000000E+00  2.00000000E+00
  2.00000000E+00  2.00000000E+00  2.00000000E+00  2.00000000E+00  2.00000000E+00
  2.00000000E+00  2.00000000E+00  2.00000000E+00  0.00000000E+00  0.00000000E+00
%FLAG SOLTY                                                                     
%FORMAT(5E16.8)                                                                 
  0.00000000E+00  0.00000000E+00  0.00000000E+00  0.00000000E+00  0.00000000E+00
  0.00000000E+00  0.00000000E+00  0.00000000E+00  0.00000000E+00  0.00000000E+00
  0.00000000E+00  0.00000000E+00  0.00000000E+00  0.00000000E+00  0.00000000E+00
%FLAG LENNARD_JONES_ACOEF                                                       
%FORMAT(5E16.8)                                                                 
  1.02073671E+06  5.42502534E+05  2.83662575E+05  8.43969952E+05  4.46121722E+05
  6.96551276E+05  6.30925504E+05  3.27367585E+05  5.17507491E+05  3.76435470E+05
  8.48258258E+05  4.47026838E+05  6.99381362E+05  5.17814271E+05  7.01825028E+05
  8.59569453E+05  4.55871651E+05  7.10207765E+05  5.29641935E+05  7.13532671E+05
  7.23647490E+05  7.18991463E+05  3.78207390E+05  5.92438683E+05  4.37717034E+05
  5.94304835E+05  6.04651377E+05  5.03152404E+05  6.97998263E+04  3.44374471E+04
  5.63013422E+04  3.86646725E+04  5.58085097E+04  5.82112737E+04  4.69084694E+04
  3.39005767E+03  1.00235148E+05  5.02224902E+04  8.12662403E+04  5.68021765E+04
  8.07866982E+04  8.37616145E+04  6.80216136E+04  5.22955465E+03  7.94617769E+03
  2.23577481E+03  9.46795083E+02  1.71458823E+03  9.87857350E+02  1.65195713E+03
  1.82809059E+03  1.36475542E+03  5.24570081E+01  9.47421632E+01  1.34728399E-01
  9.27554496E+04  4.65732396E+04  7.52549148E+04  5.27277400E+04  7.48403283E+04
  7.75325560E+04  6.30298721E+04  4.88692384E+03  7.41026906E+03  9.04434904E+01
  6.90855956E+03  3.03553352E+02  1.16469347E+02  2.25372434E+02  1.15813907E+02
  2.13197010E+02  2.45082140E+02  1.74176419E+02  4.36660257E+00  8.80612241E+00
  2.61760843E-03  8.53132435E+00  1.10360882E-05
%FLAG LENNARD_JONES_BCOEF                                                       
%FORMAT(5E16.8)                                                                 
  6.63431737E+02  4.38146883E+02  2.87011518E+02  5.90251928E+02  3.88758656E+02
  5.24668528E+02  5.62969425E+02  3.67361018E+02  4.98871431E+02  4.69350655E+02
  6.17825399E+02  4.06301077E+02  5.48900066E+02  5.21008860E+02  5.74088001E+02
  5.75038595E+02  3.79365004E+02  5.11427129E+02  4.87196412E+02  5.35211915E+02
  4.98353106E+02  5.36620538E+02  3.52573684E+02  4.76608379E+02  4.51916854E+02
  4.98393522E+02  4.64809588E+02  4.32634597E+02  1.14981426E+02  7.31636661E+01
  1.01040256E+02  9.23664132E+01  1.05029928E+02  9.91793374E+01  9.08431526E+01
  1.67944276E+01  1.37787728E+02  8.83545880E+01  1.21392023E+02  1.11953944E+02
  1.26366740E+02  1.18970742E+02  1.09393126E+02  2.08590256E+01  2.57122925E+01
  1.71355763E+01  1.01016461E+01  1.46824710E+01  1.22938581E+01  1.50468782E+01
  1.46352678E+01  1.29026271E+01  1.73959275E+00  2.33785449E+00  7.34107347E-02
  1.24325688E+02  7.98066064E+01  1.09570372E+02  1.01173582E+02  1.14083104E+02
  1.07361937E+02  9.87712192E+01  1.89134207E+01  2.32899892E+01  2.14252117E+00
  2.10929191E+01  5.22789272E+00  2.93355636E+00  4.40751799E+00  3.48534600E+00
  4.47571103E+00  4.43692527E+00  3.81654050E+00  4.15568027E-01  5.90150328E-01
  8.47240681E-03  5.44840215E-01  4.55498033E-04
%FLAG BONDS_INC_HYDROGEN                                                        
%FORMAT(10I8)                                                                   
       0     156       2       0     159       2       0     162       2      12
     165       7      12     168       7      15     171       7      24     174
      10      30     177       2      30     180       2      36     183      14
      39     186      14      45     189      17      48     192      19      54
     195      14      57     198      14      60     201      14      63     204
      14      66     207      14      69     210      14      72     213      14
      75     216       2      75     219       2      81     222      21      84
     225       7      84     228       7      90     231      14      93     234
      14      96     237      14      99     240      14     102     243      14
     111     246      10     114     249       2     120     252      14     123
     255      14     126     258      14     129     261      14     135     264
       7     135     267       7     138     270       2     141     273      21
     147     276       7     147     279       7     147     282       7     150
     285       7     150     288       7     150     291       7     153     294
       7     153     297       7     153     300       7
%FLAG BONDS_WITHOUT_HYDROGEN                                                    
%FORMAT(10I8)                                                                   
       0       3       1       3       6       3       6       9       4       6
      12       5      12      15       6      15      18       5      15     144
       6      18      21       4      18      24       8      24      27       9
      27      30      11      27      75      11      30      33      12      33
      36      13      33      72      13      36      39      13      39      42
      13      42      45      15      42      69      13      45      48      16
      48      51      18      51      54      13      51      66      13      54
      57      13      57      60      13      60      63      13      63      66
      13      69      72      13      75      78       6      78      81      20
      78      84       6      78     105       5      84      87      12      87
      90      13      87     102      13      90      93      13      93      96
      13      96      99      13      99     102      13     105     108       4
     105     111       8     111     114      22     114     117      12     114
     138       6     117     120      13     117     132      13     120     123
      13     123     126      13     126     129      13     129     132      13
     132     135      12     135     138       6     138     141      20     144
     147       6     144     150       6     144     153       6
%FLAG ANGLES_INC_HYDROGEN                                                       
%FORMAT(10I8)                                                                   
       3       0     156       2       3       0     159       2       3       0
     162       2       6      12     165       6       6      12     168       6
      12      15     171       9      15      12     165       9      15      12
     168       9      18      15     171       6      18      24     174      12
      27      24     174      15      27      30     177      17      27      30
     180      17      27      75     216      17      27      75     219      17
      33      30     177      21      33      30     180      21      33      36
     183      23      33      72     213      23      36      39     186      23
      39      36     183      23      42      39     186      23      42      45
     189      26      42      69     210      23      45      48     192      28
      48      45     189      29      51      48     192      31      51      54
     195      23      51      66     207      23      54      57     198      23
      57      54     195      23      57      60     201      23      60      57
     198      23      60      63     204      23      63      60     201      23
      63      66     207      23      66      63     204      23      69      72
     213      23      72      69     210      23      78      75     216      33
      78      75     219      33      78      81     222      34      78      84
     225       9      78      84     228       9      87      84     225      37
      87      84     228      37      87      90     231      23      87     102
     243      23      90      93     234      23      93      90     231      23
      93      96     237      23      96      93     234      23      96      99
     240      23      99      96     237      23      99     102     243      23
     102      99     240      23     105     111     246      12     111     114
     249      41     114     111     246      42     114     138     270      33
     117     114     249      21     117     120     252      23     120     123
     255      23     123     120     252      23     123     126     258      23
     126     123     255      23     126     129     261      23     129     126
     258      23     132     129     261      23     132     135     264      37
     132     135     267      37     135     138     270      33     138     135
     264       9     138     135     267       9     138     141     273      34
     138     114     249      33     141     138     270      43     144      15
     171       9     144     147     276       9     144     147     279       9
     144     147     282       9     144     150     285       9     144     150
     288       9     144     150     291       9     144     153     294       9
     144     153     297       9     144     153     300       9     156       0
     159      44     156       0     162      44     159       0     162      44
     165      12     168      45     177      30     180      44     216      75
     219      44     225      84     228      45     264     135     267      45
     276     147     279      45     276     147     282      45     279     147
     282      45     285     150     288      45     285     150     291      45
     288     150     291      45     294     153     297      45     294     153
     300      45     297     153     300      45
%FLAG ANGLES_WITHOUT_HYDROGEN                                                   
%FORMAT(10I8)                                                                   
       0       3       6       1       3       6       9       3       3       6
      12       4       6      12      15       5       9       6      12       7
      12      15      18       5      12      15     144       8      15      18
      21       7      15      18      24      10      15     144     147       8
      15     144     150       8      15     144     153       8      18      15
     144       5      18      24      27      11      21      18      24      13
      24      27      30      14      24      27      75      14      27      30
      33      16      27      75      78      18      30      27      75      19
      30      33      36      20      30      33      72      20      33      36
      39      22      33      72      69      22      36      33      72      22
      36      39      42      22      39      42      45      24      39      42
      69      22      42      45      48      25      42      69      72      22
      45      42      69      24      45      48      51      27      48      51
      54      30      48      51      66      30      51      54      57      22
      51      66      63      22      54      51      66      22      54      57
      60      22      57      60      63      22      60      63      66      22
      75      78      81      32      75      78      84       8      75      78
     105       5      78      84      87      35      78     105     108       7
      78     105     111      10      81      78      84      32      81      78
     105      36      84      78     105       5      84      87      90      20
      84      87     102      20      87      90      93      22      87     102
      99      22      90      87     102      22      90      93      96      22
      93      96      99      22      96      99     102      22     105     111
     114      38     108     105     111      13     111     114     117      39
     111     114     138      40     114     117     120      20     114     117
     132      20     114     138     135       8     114     138     141      32
     117     114     138      35     117     120     123      22     117     132
     129      22     117     132     135      20     120     117     132      22
     120     123     126      22     123     126     129      22     126     129
     132      22     129     132     135      20     132     135     138      35
     135     138     141      32     147     144     150       8     147     144
     153       8     150     144     153       8
%FLAG DIHEDRALS_INC_HYDROGEN                                                    
%FORMAT(10I8)                                                                   
       3       6      12     165       6       3       6      12     168       6
     156       0       3       6       7     159       0       3       6       7
     162       0       3       6       7       6      12      15     171       8
       9       6      12     165      13       9       6     -12     165      14
       9       6      12     168      13       9       6     -12     168      14
      15      18      24     174      20      15     144     147     276      21
      15     144     147     279      21      15     144     147     282      21
      15     144     150     285      21      15     144     150     288      21
      15     144     150     291      21      15     144     153     294      21
      15     144     153     297      21      15     144     153     300      21
      18      15      12     165       8      18      15      12     168       8
      21      18      15     171      13      21      18     -15     171      14
      21      18      24     174      23      21      18     -24     174      20
      24      18      15     171       6      24      27      30     177      24
      24      27      30     180      24      24      27      75     216      24
      24      27      75     219      24      30      27      24     174      22
      30      27      75     216      29      30      27      75     219      29
      30      33      36     183      30      30      33      72     213      30
      33      36      39     186      30      33      72      69     210      30
      36      33      30     177      25      36      33      30     180      25
      36      33      72     213      30      39      42      45     189      32
      39      42      69     210      30      42      39      36     183      30
      42      45      48     192      34      42      69      72     213      30
      45      42      39     186      30      45      42      69     210      30
      48      51      54     195      30      48      51      66     207      30
      51      48      45     189      34      51      54      57     198      30
      51      66      63     204      30      54      51      48     192      32
      54      51      66     207      30      54      57      60     201      30
      57      60      63     204      30      60      57      54     195      30
      60      63      66     207      30      63      60      57     198      30
      66      63      60     201      30      66      51      48     192      32
      66      51      54     195      30      69      42      39     186      30
      69      42      45     189      32      72      33      30     177      25
      72      33      30     180      25      72      33      36     183      30
      75      27      24     174      22      75      27      30     177      29
      75      27      30     180      29      75      78      81     222      35
      75      78      84     225      21      75      78      84     228      21
      78     105     111     246      20      81      78      75     216      39
      81      78     -75     216      35      81      78      75     219      39
      81      78     -75     219      35      81      78      84     225      40
      81      78     -84     225      41      81      78      84     228      40
      81      78     -84     228      41      84      78      75     216       8
      84      78      75     219       8      84      78      81     222      35
      84      87      90     231      30      84      87     102     243      30
      87      90      93     234      30      87     102      99     240      30
      90      87      84     225       6      90      87      84     228       6
      90      87     102     243      30      90      93      96     237      30
      93      96      99     240      30      96      93      90     231      30
      96      99     102     243      30      99      96      93     234      30
     102      99      96     237      30     102      87      84     225       6
     102      87      84     228       6     102      87      90     231      30
     105      78      75     216       8     105      78      75     219       8
     105      78      81     222      42     105      78      84     225       8
     105      78      84     228       8     105     111     114     249       6
     108     105     111     246      23     108     105    -111     246      20
     111     114     138     270       8     114     117     120     252      30
     114     138     135     264      21     114     138     135     267      21
     114     138     141     273      35     117     114     111     246      25
     117     114     138     270       8     117     120     123     255      30
     117     132     129     261      30     117     132     135     264       6
     117     132     135     267       6     120     117     114     249      25
     120     123     126     258      30     123     126     129     261      30
     126     123     120     252      30     129     126     123     255      30
     129     132     135     264       6     129     132     135     267       6
     132     129     126     258      30     132     135     138     270       8
     132     117     114     249      25     132     117     120     252      30
     135     132     129     261      30     135     138     141     273      35
     135     138     114     249       8     138     114     111     246      25
     141     138     135     264      40     141     138    -135     264      41
     141     138     135     267      40     141     138    -135     267      41
     141     138     114     249      39     141     138    -114     249      35
     144      15      12     165      21     144      15      12     168      21
     147     144      15     171      21     147     144     150     285      21
     147     144     150     288      21     147     144     150     291      21
     147     144     153     294      21     147     144     153     297      21
     147     144     153     300      21     150     144      15     171      21
     150     144     147     276      21     150     144     147     279      21
     150     144     147     282      21     150     144     153     294      21
     150     144     153     297      21     150     144     153     300      21
     153     144      15     171      21     153     144     147     276      21
     153     144     147     279      21     153     144     147     282      21
     153     144     150     285      21     153     144     150     288      21
     153     144     150     291      21     165      12      15     171      47
     168      12      15     171      47     183      36      39     186      30
     189      45      48     192      34     195      54      57     198      30
     198      57      60     201      30     201      60      63     204      30
     204      63      66     207      30     210      69      72     213      30
     231      90      93     234      30     234      93      96     237      30
     237      96      99     240      30     240      99     102     243      30
     246     111     114     249      25     249     114     138     270       8
     252     120     123     255      30     255     123     126     258      30
     258     126     129     261      30     264     135     138     270       8
     267     135     138     270       8     270     138     141     273      48
      18     174     -24     -27      49      33      39     -36    -183      49
      36      42     -39    -186      49      42      48     -45    -189      49
      51      45     -48    -192      49      51      57     -54    -195      49
      54      60     -57    -198      49      57      63     -60    -201      49
      60      66     -63    -204      49      51      63     -66    -207      49
      42      72     -69    -210      49      33      69     -72    -213      49
      87      93     -90    -231      49      90      96     -93    -234      49
      93      99     -96    -237      49      96     102     -99    -240      49
      87      99    -102    -243      49     105     114    -111    -246      49
     117     123    -120    -252      49     120     126    -123    -255      49
     123     129    -126    -258      49     126     132    -129    -261      49
%FLAG DIHEDRALS_WITHOUT_HYDROGEN                                                
%FORMAT(10I8)                                                                   
       0       3       6       9       1       0       3      -6       9       2
       0       3       6      12       3       0       3      -6      12       4
       0       3      -6      12       5       3       6      12      15       6
       6      12      15      18       8       6      12      15     144       9
       9       6      12      15      10       9       6     -12      15      11
       9       6     -12      15      12      12      15      18      21      10
      12      15     -18      21      11      12      15     -18      21      12
      12      15      18      24      15      12      15     -18      24      16
      12      15     144     147      17      12      15    -144     147      18
      12      15    -144     147      19      12      15     144     150      17
      12      15    -144     150      18      12      15    -144     150      19
      12      15     144     153      17      12      15    -144     153      18
      12      15    -144     153      19      15      18      24      27      20
      18      15     144     147       9      18      15     144     150       9
      18      15     144     153       9      18      24      27      30      22
      18      24      27      75      22      21      18      15     144      10
      21      18     -15     144      11      21      18     -15     144      12
      21      18      24      27      20      24      18      15     144      15
      24      18     -15     144      16      24      27      30      33      24
      24      27      75      78      24      27      30      33      36      25
      27      30      33      72      25      27      75      78      81       8
      27      75      78      84      26      27      75      78     105       8
      30      27      75      78      27      30      27     -75      78      28
      30      33      36      39      30      30      33      72      69      30
      33      30      27      75      24      33      36      39      42      30
      33      72     -69      42      30      36      33      72      69      30
      36      39      42      45      30      36      39     -42      69      30
      39      36      33      72      30      39      42      45      48      31
      39      42     -69      72      30      42      45      48      51      33
      45      42      69      72      30      45      48      51      54      31
      45      48      51      66      31      48      45      42      69      31
      48      51      54      57      30      48      51      66      63      30
      51      54      57      60      30      51      66     -63      60      30
      54      51      66      63      30      54      57     -60      63      30
      57      54      51      66      30      57      60     -63      66      30
      75      78      84      87       8      75      78     105     108      10
      75      78    -105     108      11      75      78    -105     108      12
      75      78     105     111      15      75      78    -105     111      16
      78      84      87      90      36      78      84      87     102      36
      78     105     111     114      37      78     105    -111     114      38
      81      78      84      87       8      81      78     105     108       6
      81      78     105     111       6      84      78     105     108      10
      84      78    -105     108      11      84      78    -105     108      12
      84      78     105     111      15      84      78    -105     111      16
      84      87      90      93      30      84      87     102      99      30
      87      84      78     105       9      87      90      93      96      30
      87     102     -99      96      30      90      87     102      99      30
      90      93     -96      99      30      93      90      87     102      30
      93      96     -99     102      30     105     111     114     117      25
     105     111     114     138      43     105     111    -114     138      44
     105     111    -114     138      45     108     105     111     114      20
     111     114     117     120      25     111     114     117     132      25
     111     114     138     135       9     111     114     138     141      46
     114     117     120     123      30     114     117     132     129      30
     114     117    -132     135      30     114     138    -135     132       8
     117     114    -138     135       8     117     114     138     141       8
     117     120     123     126      30     117     132    -129     126      30
     117     132    -135     138      36     120     117     114     138      36
     120     117     132     129      30     120     117     132     135      30
     120     123    -126     129      30     123     120     117     132      30
     123     126    -129     132      30     126     129     132     135      30
     129     132     135     138      36     132     135     138     141       8
     132     117    -114     138      36      12       9      -6      -3      49
      15      24     -18     -21      50      36      72     -33     -30      49
      39      69     -42     -45      49      54      66     -51     -48      49
      84      90     -87    -102      49      78     111    -105    -108      50
     114     120    -117    -132      49     135     117    -132    -129      49
%FLAG EXCLUDED_ATOMS_LIST                                                       
%FORMAT(10I8)                                                                   
       2       3       4       5      53      54      55       3       4       5
       6      53      54      55      56      57       4       5       6       7
      49      53      54      55      56      57      58       5       6      56
      57       6       7       8       9      49      50      51      52      56
      57      58       7       8       9      10      49      50      51      52
      56      57      58      59      93      94      95      96      97      98
      99     100     101       8       9      10      11      26      49      50
      51      52      56      57      58      59       9      10      49      58
      59      10      11      12      26      27      49      58      59      60
      61      73      74      11      12      13      25      26      27      28
      29      36      59      60      61      73      74      12      13      14
      24      25      26      27      59      60      61      62      72      73
      74      13      14      15      24      25      26      60      61      62
      63      71      72      14      15      16      24      25      60      61
      62      63      72      15      16      17      24      25      62      63
      64      71      16      17      18      24      25      62      63      64
      65      71      72      17      18      19      23      24      25      63
      64      65      71      18      19      20      22      23      24      64
      65      66      70      19      20      21      22      23      64      65
      66      67      69      70      20      21      22      23      65      66
      67      68      70      21      22      23      66      67      68      69
      22      23      66      67      68      69      70      23      67      68
      69      70      65      66      68      69      70      25      63      64
      71      72      60      61      62      71      72      27      28      29
      30      36      37      38      59      60      61      73      74      75
      76      77      28      29      30      31      35      36      37      38
      39      73      74      75      76      77      83      29      30      36
      37      38      73      74      75      76      77      30      31      32
      34      35      36      37      38      73      74      75      76      77
      78      82      31      32      33      34      35      36      76      77
      78      79      81      82      32      33      34      35      76      77
      78      79      80      82      33      34      35      78      79      80
      81      34      35      78      79      80      81      82      35      79
      80      81      82      76      77      78      80      81      82      37
      38      39      40      47      73      74      75      76      77      83
      84      38      39      83      39      40      41      45      46      47
      48      83      84      91      40      41      42      44      45      46
      47      48      83      84      85      89      90      91      92      41
      42      43      44      45      46      47      48      83      84      85
      86      88      89      90      91      42      43      44      45      46
      47      84      85      86      87      43      44      45      85      86
      87      88      44      45      46      85      86      87      88      45
      46      47      86      87      88      89      90      46      47      48
      84      85      87      88      89      90      91      47      48      84
      88      89      90      91      92      48      83      84      89      90
      91      92      84      89      90      91      92      50      51      52
      56      57      58      93      94      95      96      97      98      99
     100     101      51      52      58      93      94      95      96      97
      98      99     100     101      52      58      93      94      95      96
      97      98      99     100     101      58      93      94      95      96
      97      98      99     100     101      54      55      55       0      57
      58      58       0       0      61       0      63       0      65       0
      67      68      69      70       0      72       0      74       0       0
      77       0      79      80      81      82       0      84      91      86
      87      88       0      90      91      91      92       0      94      95
      95       0      97      98      98       0     100     101     101       0
%FLAG HBOND_ACOEF                                                               
%FORMAT(5E16.8)                                                                 

%FLAG HBOND_BCOEF                                                               
%FORMAT(5E16.8)                                                                 

%FLAG HBCUT                                                                     
%FORMAT(5E16.8)                                                                 

%FLAG AMBER_ATOM_TYPE                                                           
%FORMAT(20a4)                                                                   
c3  os  c   o   c3  c3  c   o   ns  n3  c3  ca  ca  ca  ca  ce  cf  ca  ca  ca  
ca  ca  ca  ca  ca  c3  c3  oh  c3  ca  ca  ca  ca  ca  ca  c   o   ns  c3  ca  
ca  ca  ca  ca  ca  c3  c3  oh  c3  c3  c3  c3  h1  h1  h1  hc  hc  hc  hn  h1  
h1  ha  ha  ha  ha  ha  ha  ha  ha  ha  ha  ha  h1  h1  ho  hc  hc  ha  ha  ha  
ha  ha  hn  h1  ha  ha  ha  ha  hc  hc  h1  ho  hc  hc  hc  hc  hc  hc  hc  hc  
hc  
%FLAG TREE_CHAIN_CLASSIFICATION                                                 
%FORMAT(20a4)                                                                   
BLA BLA BLA BLA BLA BLA BLA BLA BLA BLA BLA BLA BLA BLA BLA BLA BLA BLA BLA BLA 
BLA BLA BLA BLA BLA BLA BLA BLA BLA BLA BLA BLA BLA BLA BLA BLA BLA BLA BLA BLA 
BLA BLA BLA BLA BLA BLA BLA BLA BLA BLA BLA BLA BLA BLA BLA BLA BLA BLA BLA BLA 
BLA BLA BLA BLA BLA BLA BLA BLA BLA BLA BLA BLA BLA BLA BLA BLA BLA BLA BLA BLA 
BLA BLA BLA BLA BLA BLA BLA BLA BLA BLA BLA BLA BLA BLA BLA BLA BLA BLA BLA BLA 
BLA 
%FLAG JOIN_ARRAY                                                                
%FORMAT(10I8)                                                                   
       0       0       0       0       0       0       0       0       0       0
       0       0       0       0       0       0       0       0       0       0
       0       0       0       0       0       0       0       0       0       0
       0       0       0       0       0       0       0       0       0       0
       0       0       0       0       0       0       0       0       0       0
       0       0       0       0       0       0       0       0       0       0
       0       0       0       0       0       0       0       0       0       0
       0       0       0       0       0       0       0       0       0       0
       0       0       0       0       0       0       0       0       0       0
       0       0       0       0       0       0       0       0       0       0
       0
%FLAG IROTAT                                                                    
%FORMAT(10I8)                                                                   
       0       0       0       0       0       0       0       0       0       0
       0       0       0       0       0       0       0       0       0       0
       0       0       0       0       0       0       0       0       0       0
       0       0       0       0       0       0       0       0       0       0
       0       0       0       0       0       0       0       0       0       0
       0       0       0       0       0       0       0       0       0       0
       0       0       0       0       0       0       0       0       0       0
       0       0       0       0       0       0       0       0       0       0
       0       0       0       0       0       0       0       0       0       0
       0       0       0       0       0       0       0       0       0       0
       0
%FLAG RADIUS_SET                                                                
%FORMAT(1a80)                                                                   
modified Bondi radii (mbondi)                                                   
%FLAG RADII                                                                     
%FORMAT(5E16.8)                                                                 
  1.70000000E+00  1.50000000E+00  1.70000000E+00  1.50000000E+00  1.70000000E+00
  1.70000000E+00  1.70000000E+00  1.50000000E+00  1.55000000E+00  1.55000000E+00
  1.70000000E+00  1.70000000E+00  1.70000000E+00  1.70000000E+00  1.70000000E+00
  1.70000000E+00  1.70000000E+00  1.70000000E+00  1.70000000E+00  1.70000000E+00
  1.70000000E+00  1.70000000E+00  1.70000000E+00  1.70000000E+00  1.70000000E+00
  1.70000000E+00  1.70000000E+00  1.50000000E+00  1.70000000E+00  1.70000000E+00
  1.70000000E+00  1.70000000E+00  1.70000000E+00  1.70000000E+00  1.70000000E+00
  1.70000000E+00  1.50000000E+00  1.55000000E+00  1.70000000E+00  1.70000000E+00
  1.70000000E+00  1.70000000E+00  1.70000000E+00  1.70000000E+00  1.70000000E+00
  1.70000000E+00  1.70000000E+00  1.50000000E+00  1.70000000E+00  1.70000000E+00
  1.70000000E+00  1.70000000E+00  1.30000000E+00  1.30000000E+00  1.30000000E+00
  1.30000000E+00  1.30000000E+00  1.30000000E+00  1.30000000E+00  1.30000000E+00
  1.30000000E+00  1.30000000E+00  1.30000000E+00  1.30000000E+00  1.30000000E+00
  1.30000000E+00  1.30000000E+00  1.30000000E+00  1.30000000E+00  1.30000000E+00
  1.30000000E+00  1.30000000E+00  1.30000000E+00  1.30000000E+00  8.00000000E-01
  1.30000000E+00  1.30000000E+00  1.30000000E+00  1.30000000E+00  1.30000000E+00
  1.30000000E+00  1.30000000E+00  1.30000000E+00  1.30000000E+00  1.30000000E+00
  1.30000000E+00  1.30000000E+00  1.30000000E+00  1.30000000E+00  1.30000000E+00
  1.30000000E+00  8.00000000E-01  1.30000000E+00  1.30000000E+00  1.30000000E+00
  1.30000000E+00  1.30000000E+00  1.30000000E+00  1.30000000E+00  1.30000000E+00
  1.30000000E+00
%FLAG SCREEN                                                                    
%FORMAT(5E16.8)                                                                 
  7.20000000E-01  8.50000000E-01  7.20000000E-01  8.50000000E-01  7.20000000E-01
  7.20000000E-01  7.20000000E-01  8.50000000E-01  7.90000000E-01  7.90000000E-01
  7.20000000E-01  7.20000000E-01  7.20000000E-01  7.20000000E-01  7.20000000E-01
  7.20000000E-01  7.20000000E-01  7.20000000E-01  7.20000000E-01  7.20000000E-01
  7.20000000E-01  7.20000000E-01  7.20000000E-01  7.20000000E-01  7.20000000E-01
  7.20000000E-01  7.20000000E-01  8.50000000E-01  7.20000000E-01  7.20000000E-01
  7.20000000E-01  7.20000000E-01  7.20000000E-01  7.20000000E-01  7.20000000E-01
  7.20000000E-01  8.50000000E-01  7.90000000E-01  7.20000000E-01  7.20000000E-01
  7.20000000E-01  7.20000000E-01  7.20000000E-01  7.20000000E-01  7.20000000E-01
  7.20000000E-01  7.20000000E-01  8.50000000E-01  7.20000000E-01  7.20000000E-01
  7.20000000E-01  7.20000000E-01  8.50000000E-01  8.50000000E-01  8.50000000E-01
  8.50000000E-01  8.50000000E-01  8.50000000E-01  8.50000000E-01  8.50000000E-01
  8.50000000E-01  8.50000000E-01  8.50000000E-01  8.50000000E-01  8.50000000E-01
  8.50000000E-01  8.50000000E-01  8.50000000E-01  8.50000000E-01  8.50000000E-01
  8.50000000E-01  8.50000000E-01  8.50000000E-01  8.50000000E-01  8.50000000E-01
  8.50000000E-01  8.50000000E-01  8.50000000E-01  8.50000000E-01  8.50000000E-01
  8.50000000E-01  8.50000000E-01  8.50000000E-01  8.50000000E-01  8.50000000E-01
  8.50000000E-01  8.50000000E-01  8.50000000E-01  8.50000000E-01  8.50000000E-01
  8.50000000E-01  8.50000000E-01  8.50000000E-01  8.50000000E-01  8.50000000E-01
  8.50000000E-01  8.50000000E-01  8.50000000E-01  8.50000000E-01  8.50000000E-01
  8.50000000E-01
%FLAG IPOL                                                                      
%FORMAT(1I8)                                                                    
       0
