MOL
    69
  -3.6790000  -2.4960000   0.9000000  -3.6430000  -0.9830000   1.0430000
  -3.5290000  -0.2480000  -0.2940000  -2.2130000  -0.5270000  -1.0170000
  -2.0170000   0.3860000  -2.2120000  -2.9370000   0.9230000  -2.8090000
  -0.6760000   0.5700000  -2.5620000  -0.1210000   1.4580000  -3.8420000
  -0.6080000   0.8270000  -5.0520000   1.3070000   1.6200000  -3.6440000
  -0.8620000   3.0760000  -3.6990000  -1.5600000   3.5540000  -4.8230000
  -2.1580000   4.8120000  -4.8020000  -2.0630000   5.6030000  -3.6630000
  -1.3730000   5.1330000  -2.5430000  -0.7590000   3.8640000  -2.5340000
  -0.0800000   3.4390000  -1.3060000   1.3180000   3.4480000  -1.2110000
   1.9620000   2.9530000  -0.0750000   1.2170000   2.4330000   0.9910000
   1.9020000   1.7340000   2.1380000   1.4450000   0.3530000   2.2990000
   0.8920000  -0.2030000   3.4360000   0.7360000   0.4770000   4.7590000
   1.8650000   0.1360000   5.7320000   3.2030000   0.7560000   5.3550000
   0.4820000  -1.4320000   3.1950000   0.7690000  -1.6890000   1.8810000
   0.4050000  -3.0060000   1.2860000   1.5780000  -3.9730000   1.2600000
   1.4110000  -0.6100000   1.3010000   1.8590000  -0.4810000  -0.0500000
   1.2440000  -0.7800000  -1.0640000   3.0950000   0.0500000  -0.1180000
  -0.1750000   2.5270000   0.9340000  -0.9170000   2.0940000   1.9620000
  -0.8220000   3.0190000  -0.1940000  -4.4950000  -2.8080000   0.2400000
  -2.7400000  -2.8840000   0.4960000  -3.8370000  -2.9620000   1.8780000
  -4.5640000  -0.6560000   1.5430000  -2.8100000  -0.6980000   1.6970000
  -3.6180000   0.8290000  -0.1040000  -4.3730000  -0.5180000  -0.9400000
  -1.3840000  -0.3760000  -0.3190000  -2.1730000  -1.5600000  -1.3780000
   0.0690000   0.1250000  -2.0180000  -1.6500000   2.9460000  -5.7210000
  -2.7000000   5.1710000  -5.6740000  -2.5290000   6.5850000  -3.6420000
  -1.3170000   5.7720000  -1.6620000   1.9200000   3.8030000  -2.0480000
   3.0510000   2.9280000  -0.0570000   1.7220000   2.2980000   3.0550000
   2.9880000   1.6830000   1.9970000   0.6250000   1.5610000   4.6590000
  -0.2070000   0.1280000   5.1990000   1.5860000   0.5010000   6.7280000
   1.9820000  -0.9510000   5.8150000   3.5820000   0.3500000   4.4130000
   3.9460000   0.5440000   6.1300000   3.1190000   1.8430000   5.2570000
   0.0230000  -2.8630000   0.2690000  -0.4130000  -3.4500000   1.8660000
   2.4020000  -3.5820000   0.6540000   1.9620000  -4.1550000   2.2690000
   1.2690000  -4.9330000   0.8340000   3.2840000   0.0780000  -1.0810000
  -1.9090000   3.0370000  -0.2110000
