%VERSION  VERSION_STAMP = V0001.000  DATE = 07/11/26  13:41:20                  
%FLAG TITLE                                                                     
%FORMAT(20a4)                                                                   
MOL                                                                             
%FLAG POINTERS                                                                  
%FORMAT(10I8)                                                                   
      69      14      32      39      70      55     114      88       0       0
     368       1      39      55      88      26      49      32      18       0
       0       0       0       0       0       0       0       0      69       0
       0
%FLAG ATOM_NAME                                                                 
%FORMAT(20a4)                                                                   
C1  C2  C3  C4  C5  O1  N1  S1  O2  O3  C6  C7  C8  C9  C10 C11 C12 C13 C14 C15 
C16 N2  C17 C18 C19 C20 N3  C21 C22 C23 C24 C25 O4  O5  C26 F1  C27 H1  H2  H3  
H4  H5  H6  H7  H8  H9  H10 H11 H12 H13 H14 H15 H16 H17 H18 H19 H20 H21 H22 H23 
H24 H25 H26 H27 H28 H29 H30 H31 H32 
%FLAG CHARGE                                                                    
%FORMAT(5E16.8)                                                                 
 -1.78760763E+00 -1.44685062E+00 -1.39218372E+00 -2.77707852E+00  1.26480984E+01
 -1.05343116E+01 -1.24695199E+01  2.73862947E+01 -1.18408505E+01 -1.18408505E+01
 -6.25936005E+00 -3.64446000E-01 -2.69690040E+00 -1.20267180E+00 -2.73334500E+00
  1.40311710E+00 -8.56448100E-01 -2.16845370E+00 -1.67645160E+00 -2.79347859E+00
  1.54160658E+00 -3.04130187E+00  8.28750204E+00 -2.05365321E+00 -1.48329522E+00
 -1.82405223E+00 -1.23182748E+01  7.37274258E+00 -2.16298701E+00 -1.62360693E+00
 -5.32455606E+00  1.28412548E+01 -1.05507117E+01 -1.10263137E+01  2.49463287E+00
 -2.47641057E+00 -2.71512270E+00  6.38381836E-01  6.38381836E-01  6.38381836E-01
  7.59869910E-01  7.59869910E-01  1.06053786E+00  1.06053786E+00  1.46142846E+00
  1.46142846E+00  6.45980535E+00  3.18890250E+00  2.66045580E+00  2.55112200E+00
  2.60578890E+00  3.33468090E+00  2.80623420E+00  1.54342881E+00  1.54342881E+00
  1.28831661E+00  1.28831661E+00  1.01498211E+00  1.01498211E+00  6.50536110E-01
  6.50536110E-01  6.50536110E-01  1.17898281E+00  1.17898281E+00  7.47715636E-01
  7.47715636E-01  7.47715636E-01  8.29114650E+00  2.91556800E+00
%FLAG ATOMIC_NUMBER                                                             
%FORMAT(10I8)                                                                   
       6       6       6       6       6       8       7      16       8       8
       6       6       6       6       6       6       6       6       6       6
       6       7       6       6       6       6       7       6       6       6
       6       6       8       8       6       9       6       1       1       1
       1       1       1       1       1       1       1       1       1       1
       1       1       1       1       1       1       1       1       1       1
       1       1       1       1       1       1       1       1       1
%FLAG MASS                                                                      
%FORMAT(5E16.8)                                                                 
  1.20100000E+01  1.20100000E+01  1.20100000E+01  1.20100000E+01  1.20100000E+01
  1.60000000E+01  1.40100000E+01  3.20600000E+01  1.60000000E+01  1.60000000E+01
  1.20100000E+01  1.20100000E+01  1.20100000E+01  1.20100000E+01  1.20100000E+01
  1.20100000E+01  1.20100000E+01  1.20100000E+01  1.20100000E+01  1.20100000E+01
  1.20100000E+01  1.40100000E+01  1.20100000E+01  1.20100000E+01  1.20100000E+01
  1.20100000E+01  1.40100000E+01  1.20100000E+01  1.20100000E+01  1.20100000E+01
  1.20100000E+01  1.20100000E+01  1.60000000E+01  1.60000000E+01  1.20100000E+01
  1.90000000E+01  1.20100000E+01  1.00800000E+00  1.00800000E+00  1.00800000E+00
  1.00800000E+00  1.00800000E+00  1.00800000E+00  1.00800000E+00  1.00800000E+00
  1.00800000E+00  1.00800000E+00  1.00800000E+00  1.00800000E+00  1.00800000E+00
  1.00800000E+00  1.00800000E+00  1.00800000E+00  1.00800000E+00  1.00800000E+00
  1.00800000E+00  1.00800000E+00  1.00800000E+00  1.00800000E+00  1.00800000E+00
  1.00800000E+00  1.00800000E+00  1.00800000E+00  1.00800000E+00  1.00800000E+00
  1.00800000E+00  1.00800000E+00  1.00800000E+00  1.00800000E+00
%FLAG ATOM_TYPE_INDEX                                                           
%FORMAT(10I8)                                                                   
       1       1       1       1       2       3       4       5       3       3
       2       2       2       2       2       2       2       2       2       2
       1       6       2       1       1       1       7       2       1       1
       2       2       3       8       2       9       2      10      10      10
      10      10      10      10      10      10      11      12      12      12
      12      12      12      13      13      10      10      10      10      10
      10      10      10      10      10      10      10      14      12
%FLAG NUMBER_EXCLUDED_ATOMS                                                     
%FORMAT(10I8)                                                                   
      10      12      13      11      11       5       9      10       5       4
      12       8       7       7       7      10      10       8      10      12
      13      15      14      12       9       7       9      11       8       6
       8       3       2       1       6       2       2       4       3       2
       3       2       3       2       1       1       1       1       1       1
       1       1       1       1       1       3       2       4       3       2
       1       1       4       3       2       1       1       1       1
%FLAG NONBONDED_PARM_INDEX                                                      
%FORMAT(10I8)                                                                   
       1       2       4       7      11      16      22      29      37      46
      56      67      79      92       2       3       5       8      12      17
      23      30      38      47      57      68      80      93       4       5
       6       9      13      18      24      31      39      48      58      69
      81      94       7       8       9      10      14      19      25      32
      40      49      59      70      82      95      11      12      13      14
      15      20      26      33      41      50      60      71      83      96
      16      17      18      19      20      21      27      34      42      51
      61      72      84      97      22      23      24      25      26      27
      28      35      43      52      62      73      85      98      29      30
      31      32      33      34      35      36      44      53      63      74
      86      99      37      38      39      40      41      42      43      44
      45      54      64      75      87     100      46      47      48      49
      50      51      52      53      54      55      65      76      88     101
      56      57      58      59      60      61      62      63      64      65
      66      77      89     102      67      68      69      70      71      72
      73      74      75      76      77      78      90     103      79      80
      81      82      83      84      85      86      87      88      89      90
      91     104      92      93      94      95      96      97      98      99
     100     101     102     103     104     105
%FLAG RESIDUE_LABEL                                                             
%FORMAT(20a4)                                                                   
MOL 
%FLAG RESIDUE_POINTER                                                           
%FORMAT(10I8)                                                                   
       1
%FLAG BOND_FORCE_CONSTANT                                                       
%FORMAT(5E16.8)                                                                 
  2.32500000E+02  3.75900000E+02  2.43200000E+02  6.52600000E+02  3.56200000E+02
  2.85300000E+02  5.27300000E+02  6.53200000E+02  2.09800000E+02  3.78600000E+02
  3.68400000E+02  3.95700000E+02  2.77600000E+02  2.50300000E+02  2.62900000E+02
  3.75900000E+02  3.54500000E+02  2.62600000E+02  4.50700000E+02  3.69100000E+02
  2.62600000E+02  4.16100000E+02  2.95400000E+02  3.83100000E+02  5.63500000E+02
  3.53600000E+02
%FLAG BOND_EQUIL_VALUE                                                          
%FORMAT(5E16.8)                                                                 
  1.53800000E+00  1.09700000E+00  1.52400000E+00  1.21800000E+00  1.37900000E+00
  1.71600000E+00  1.01300000E+00  1.46600000E+00  1.79100000E+00  1.39800000E+00
  1.40600000E+00  1.08600000E+00  1.48500000E+00  1.51600000E+00  1.46300000E+00
  1.09700000E+00  1.38000000E+00  1.50200000E+00  1.31700000E+00  1.36900000E+00
  1.50200000E+00  1.37300000E+00  1.46800000E+00  1.35100000E+00  9.73000000E-01
  1.34900000E+00
%FLAG ANGLE_FORCE_CONSTANT                                                      
%FORMAT(5E16.8)                                                                 
  6.49000000E+01  4.68000000E+01  6.53000000E+01  8.46000000E+01  8.43000000E+01
  4.74000000E+01  6.23000000E+01  4.87000000E+01  1.13800000E+02  1.22200000E+02
  9.05000000E+01  4.33000000E+01  6.34000000E+01  6.56000000E+01  1.26400000E+02
  9.43000000E+01  6.88000000E+01  4.87000000E+01  6.89000000E+01  6.61000000E+01
  6.84000000E+01  4.85000000E+01  6.56000000E+01  8.33000000E+01  4.75000000E+01
  8.93000000E+01  6.37000000E+01  6.15000000E+01  8.24000000E+01  1.15500000E+02
  9.27000000E+01  8.67000000E+01  7.05000000E+01  6.55000000E+01  4.77000000E+01
  7.39000000E+01  8.39000000E+01  8.32000000E+01  9.11000000E+01  6.55000000E+01
  4.77000000E+01  6.72000000E+01  6.68000000E+01  8.67000000E+01  8.78000000E+01
  5.16000000E+01  1.15700000E+02  3.90000000E+01  3.88000000E+01
%FLAG ANGLE_EQUIL_VALUE                                                         
%FORMAT(5E16.8)                                                                 
  1.94621748E+00  1.91637234E+00  1.93801443E+00  2.15024656E+00  2.01027109E+00
  1.89839544E+00  2.17625198E+00  2.05163542E+00  2.14762857E+00  1.87692788E+00
  1.83905422E+00  1.96052919E+00  2.08427309E+00  1.94045789E+00  2.11900515E+00
  1.89106506E+00  2.09474507E+00  2.09230160E+00  2.06612165E+00  2.11376916E+00
  2.10643878E+00  2.09195254E+00  2.10783504E+00  1.96995397E+00  1.91218355E+00
  2.07624457E+00  2.20714432E+00  1.89856997E+00  2.14204351E+00  1.95860933E+00
  1.86732857E+00  2.15146829E+00  1.91811767E+00  1.95354787E+00  1.92841512E+00
  1.84114862E+00  2.13645845E+00  2.11097664E+00  1.94866095E+00  1.95354787E+00
  1.92841512E+00  2.11795796E+00  2.08479669E+00  2.16298747E+00  1.96943037E+00
  1.85964912E+00  2.13104793E+00  1.87762601E+00  1.89298492E+00
%FLAG DIHEDRAL_FORCE_CONSTANT                                                   
%FORMAT(5E16.8)                                                                 
  1.10000000E-01  2.90000000E-01  1.30000000E-01  8.00000000E-02  1.00000000E-01
  7.40000000E-01  2.70000000E-01  5.50000000E-01  7.10000000E-01  0.00000000E+00
  2.50000000E+00  1.55555556E-01  1.10000000E+00  8.30000000E-01  4.00000000E-02
  2.00000000E+00  0.00000000E+00  1.30000000E+00  3.62500000E+00  7.95000000E-01
  0.00000000E+00  1.70000000E+00  0.00000000E+00  4.75000000E+00  4.00000000E+00
  2.87500000E+00  1.57000000E-01  2.30000000E+00  1.90000000E+00  1.20000000E-01
  1.05000000E+01  1.10000000E+00
%FLAG DIHEDRAL_PERIODICITY                                                      
%FORMAT(5E16.8)                                                                 
  1.00000000E+00  2.00000000E+00  3.00000000E+00  3.00000000E+00  3.00000000E+00
  1.00000000E+00  2.00000000E+00  3.00000000E+00  2.00000000E+00  4.00000000E+00
  2.00000000E+00  3.00000000E+00  2.00000000E+00  1.00000000E+00  3.00000000E+00
  1.00000000E+00  2.00000000E+00  2.00000000E+00  2.00000000E+00  2.00000000E+00
  2.00000000E+00  2.00000000E+00  3.00000000E+00  2.00000000E+00  2.00000000E+00
  2.00000000E+00  3.00000000E+00  2.00000000E+00  1.00000000E+00  3.00000000E+00
  2.00000000E+00  2.00000000E+00
%FLAG DIHEDRAL_PHASE                                                            
%FORMAT(5E16.8)                                                                 
  0.00000000E+00  3.14159400E+00  0.00000000E+00  0.00000000E+00  0.00000000E+00
  0.00000000E+00  3.14159400E+00  3.14159400E+00  3.14159400E+00  3.14159400E+00
  3.14159400E+00  0.00000000E+00  3.14159400E+00  0.00000000E+00  3.14159400E+00
  0.00000000E+00  3.14159400E+00  3.14159400E+00  3.14159400E+00  3.14159400E+00
  0.00000000E+00  3.14159400E+00  0.00000000E+00  3.14159400E+00  3.14159400E+00
  3.14159400E+00  3.14159400E+00  3.14159400E+00  0.00000000E+00  0.00000000E+00
  3.14159400E+00  3.14159400E+00
%FLAG SCEE_SCALE_FACTOR                                                         
%FORMAT(5E16.8)                                                                 
  1.20000000E+00  1.20000000E+00  1.20000000E+00  1.20000000E+00  1.20000000E+00
  1.20000000E+00  1.20000000E+00  1.20000000E+00  1.20000000E+00  1.20000000E+00
  1.20000000E+00  1.20000000E+00  1.20000000E+00  1.20000000E+00  1.20000000E+00
  1.20000000E+00  1.20000000E+00  1.20000000E+00  1.20000000E+00  1.20000000E+00
  1.20000000E+00  1.20000000E+00  1.20000000E+00  1.20000000E+00  1.20000000E+00
  1.20000000E+00  1.20000000E+00  1.20000000E+00  1.20000000E+00  1.20000000E+00
  0.00000000E+00  0.00000000E+00
%FLAG SCNB_SCALE_FACTOR                                                         
%FORMAT(5E16.8)                                                                 
  2.00000000E+00  2.00000000E+00  2.00000000E+00  2.00000000E+00  2.00000000E+00
  2.00000000E+00  2.00000000E+00  2.00000000E+00  2.00000000E+00  2.00000000E+00
  2.00000000E+00  2.00000000E+00  2.00000000E+00  2.00000000E+00  2.00000000E+00
  2.00000000E+00  2.00000000E+00  2.00000000E+00  2.00000000E+00  2.00000000E+00
  2.00000000E+00  2.00000000E+00  2.00000000E+00  2.00000000E+00  2.00000000E+00
  2.00000000E+00  2.00000000E+00  2.00000000E+00  2.00000000E+00  2.00000000E+00
  0.00000000E+00  0.00000000E+00
%FLAG SOLTY                                                                     
%FORMAT(5E16.8)                                                                 
  0.00000000E+00  0.00000000E+00  0.00000000E+00  0.00000000E+00  0.00000000E+00
  0.00000000E+00  0.00000000E+00  0.00000000E+00  0.00000000E+00  0.00000000E+00
  0.00000000E+00  0.00000000E+00  0.00000000E+00  0.00000000E+00  0.00000000E+00
  0.00000000E+00  0.00000000E+00  0.00000000E+00
%FLAG LENNARD_JONES_ACOEF                                                       
%FORMAT(5E16.8)                                                                 
  1.02073671E+06  8.43969952E+05  6.96551276E+05  6.30925504E+05  5.17507491E+05
  3.76435470E+05  8.48258258E+05  6.99381362E+05  5.17814271E+05  7.01825028E+05
  2.09089895E+06  1.73376823E+06  1.30884564E+06  1.74537186E+06  4.26366419E+06
  9.96191545E+05  8.20152428E+05  6.04208667E+05  8.22346035E+05  2.05449504E+06
  9.62429652E+05  9.31115275E+05  7.69642101E+05  5.74782316E+05  7.73425391E+05
  1.90820499E+06  9.08092643E+05  8.49322032E+05  7.18991463E+05  5.92438683E+05
  4.37717034E+05  5.94304835E+05  1.48082758E+06  6.96017793E+05  6.55497149E+05
  5.03152404E+05  4.63627012E+05  3.80155513E+05  2.76207447E+05  3.80309307E+05
  9.62298009E+05  4.43641379E+05  4.22347898E+05  3.21445185E+05  2.02652992E+05
  1.00235148E+05  8.12662403E+04  5.68021765E+04  8.07866982E+04  2.11783234E+05
  9.33839501E+04  9.11435380E+04  6.80216136E+04  4.15877422E+04  7.94617769E+03
  2.23577481E+03  1.71458823E+03  9.87857350E+02  1.65195713E+03  5.15374979E+03
  1.82491629E+03  2.01475241E+03  1.36475542E+03  7.15600927E+02  9.47421632E+01
  1.34728399E-01  9.27554496E+04  7.52549148E+04  5.27277400E+04  7.48403283E+04
  1.95762765E+05  8.65595848E+04  8.43518904E+04  6.30298721E+04  3.86097375E+04
  7.41026906E+03  9.04434904E+01  6.90855956E+03  6.97998263E+04  5.63013422E+04
  3.86646725E+04  5.58085097E+04  1.48672098E+05  6.42436358E+04  6.34160397E+04
  4.69084694E+04  2.82810778E+04  5.22955465E+03  5.24570081E+01  4.88692384E+03
  3.39005767E+03  3.03553352E+02  2.25372434E+02  1.15813907E+02  2.13197010E+02
  7.35778500E+02  2.29317644E+02  2.72118326E+02  1.74176419E+02  8.33610614E+01
  8.80612241E+00  2.61760843E-03  8.53132435E+00  4.36660257E+00  1.10360882E-05
%FLAG LENNARD_JONES_BCOEF                                                       
%FORMAT(5E16.8)                                                                 
  6.63431737E+02  5.90251928E+02  5.24668528E+02  5.62969425E+02  4.98871431E+02
  4.69350655E+02  6.17825399E+02  5.48900066E+02  5.21008860E+02  5.74088001E+02
  1.20800124E+03  1.07629402E+03  1.03157656E+03  1.12747567E+03  2.19459223E+03
  7.68900328E+02  6.82622272E+02  6.46321327E+02  7.13654906E+02  1.40479403E+03
  8.86629877E+02  6.12468585E+02  5.44830041E+02  5.19385932E+02  5.70234696E+02
  1.11546536E+03  7.09588248E+02  5.65406768E+02  5.36620538E+02  4.76608379E+02
  4.51916854E+02  4.98393522E+02  9.79758754E+02  6.19405188E+02  4.95260330E+02
  4.32634597E+02  4.19082844E+02  3.71304925E+02  3.49131956E+02  3.87745109E+02
  7.68124812E+02  4.80939874E+02  3.86628088E+02  3.36306318E+02  2.59697739E+02
  1.37787728E+02  1.21392023E+02  1.11953944E+02  1.26366740E+02  2.54804909E+02
  1.56025608E+02  1.27000718E+02  1.09393126E+02  8.31877412E+01  2.57122925E+01
  1.71355763E+01  1.46824710E+01  1.22938581E+01  1.50468782E+01  3.30984635E+01
  1.81620725E+01  1.57231024E+01  1.29026271E+01  9.08649254E+00  2.33785449E+00
  7.34107347E-02  1.24325688E+02  1.09570372E+02  1.01173582E+02  1.14083104E+02
  2.29782888E+02  1.40899023E+02  1.14599119E+02  9.87712192E+01  7.51823196E+01
  2.32899892E+01  2.14252117E+00  2.10929191E+01  1.14981426E+02  1.01040256E+02
  9.23664132E+01  1.05029928E+02  2.13489607E+02  1.29412081E+02  1.05935811E+02
  9.08431526E+01  6.86000827E+01  2.08590256E+01  1.73959275E+00  1.89134207E+01
  1.67944276E+01  5.22789272E+00  4.40751799E+00  3.48534600E+00  4.47571103E+00
  1.03548588E+01  5.33073545E+00  4.78443613E+00  3.81654050E+00  2.56783379E+00
  5.90150328E-01  8.47240681E-03  5.44840215E-01  4.15568027E-01  4.55498033E-04
%FLAG BONDS_INC_HYDROGEN                                                        
%FORMAT(10I8)                                                                   
       0     111       2       0     114       2       0     117       2       3
     120       2       3     123       2       6     126       2       6     129
       2       9     132       2       9     135       2      18     138       7
      33     141      12      36     144      12      39     147      12      42
     150      12      51     153      12      54     156      12      60     159
      16      60     162      16      69     165       2      69     168       2
      72     171       2      72     174       2      75     177       2      75
     180       2      75     183       2      84     186       2      84     189
       2      87     192       2      87     195       2      87     198       2
      99     201      25     108     204      12
%FLAG BONDS_WITHOUT_HYDROGEN                                                    
%FORMAT(10I8)                                                                   
       0       3       1       3       6       1       6       9       1       9
      12       3      12      15       4      12      18       5      18      21
       6      21      24       8      21      27       8      21      30       9
      30      33      10      30      45      11      33      36      10      36
      39      10      39      42      10      42      45      11      45      48
      13      48      51      11      48     108      11      51      54      10
      54      57      10      57      60      14      57     102      10      60
      63      15      63      66      17      63      90      17      66      69
      18      66      78      19      69      72       1      72      75       1
      78      81      20      81      84      21      81      90      22      84
      87       1      90      93      23      93      96       4      93      99
      24     102     105      26     102     108      10
%FLAG ANGLES_INC_HYDROGEN                                                       
%FORMAT(10I8)                                                                   
       0       3     120       2       0       3     123       2       3       0
     111       2       3       0     114       2       3       0     117       2
       3       6     126       2       3       6     129       2       6       3
     120       2       6       3     123       2       6       9     132       2
       6       9     135       2       9       6     126       2       9       6
     129       2      12       9     132       6      12       9     135       6
      12      18     138       8      21      18     138      12      30      33
     141      18      33      36     144      18      36      33     141      18
      36      39     147      18      39      36     144      18      39      42
     150      18      42      39     147      18      45      42     150      22
      48      51     153      22      48     108     204      22      51      54
     156      18      54      51     153      18      57      54     156      18
      57      60     159      25      57      60     162      25      63      60
     159      28      63      60     162      28      66      69     165      35
      66      69     168      35      69      72     171       2      69      72
     174       2      72      69     165       2      72      69     168       2
      72      75     177       2      72      75     180       2      72      75
     183       2      75      72     171       2      75      72     174       2
      81      84     186      41      81      84     189      41      84      87
     192       2      84      87     195       2      84      87     198       2
      87      84     186       2      87      84     189       2      93      99
     201      46     102     108     204      18     111       0     114      48
     111       0     117      48     114       0     117      48     120       3
     123      48     126       6     129      48     132       9     135      48
     159      60     162      49     165      69     168      48     171      72
     174      48     177      75     180      48     177      75     183      48
     180      75     183      48     186      84     189      48     192      87
     195      48     192      87     198      48     195      87     198      48
%FLAG ANGLES_WITHOUT_HYDROGEN                                                   
%FORMAT(10I8)                                                                   
       0       3       6       1       3       6       9       1       6       9
      12       3       9      12      15       4       9      12      18       5
      12      18      21       7      15      12      18       9      18      21
      24      10      18      21      27      10      18      21      30      11
      21      30      33      13      21      30      45      14      24      21
      27      15      24      21      30      16      27      21      30      16
      30      33      36      17      30      45      42      19      30      45
      48      20      33      30      45      21      33      36      39      17
      36      39      42      17      39      42      45      21      42      45
      48      20      45      48      51      20      45      48     108      20
      48      51      54      21      48     108     102      21      51      48
     108      19      51      54      57      17      54      57      60      23
      54      57     102      17      57      60      63      24      57     102
     105      26      57     102     108      17      60      57     102      23
      60      63      66      27      60      63      90      27      63      66
      69      29      63      66      78      30      63      90      81      31
      63      90      93      32      66      63      90      33      66      69
      72      34      66      78      81      36      69      66      78      37
      69      72      75       1      78      81      84      38      78      81
      90      39      81      84      87      40      81      90      93      42
      84      81      90      43      90      93      96      44      90      93
      99      45      96      93      99      47     105     102     108      26
%FLAG DIHEDRALS_INC_HYDROGEN                                                    
%FORMAT(10I8)                                                                   
       0       3       6     126       4       0       3       6     129       4
       3       6       9     132       4       3       6       9     135       4
     111       0       3       6       4     114       0       3       6       4
     117       0       3       6       4       9       6       3     120       4
       9       6       3     123       4       9      12      18     138      11
      12       9       6     126      12      12       9       6     129      12
      15      12       9     132      14      15      12      -9     132      15
      15      12       9     135      14      15      12      -9     135      15
      15      12      18     138      16      15      12     -18     138      11
      18      12       9     132      17      18      12       9     135      17
      21      30      33     141      19      24      21      18     138      13
      27      21      18     138      13      30      21      18     138      13
      30      33      36     144      19      30      45      42     150      19
      33      36      39     147      19      36      39      42     150      19
      39      36      33     141      19      42      39      36     144      19
      45      42      39     147      19      45      48      51     153      19
      45      48     108     204      19      45      30      33     141      19
      48      45      42     150      19      48      51      54     156      19
      51      48     108     204      19      54      57      60     159      21
      54      57      60     162      21      57      54      51     153      19
      57     102     108     204      19      60      57      54     156      19
      63      66      69     165      23      63      66      69     168      23
      66      63      60     159      17      66      63      60     162      17
      66      69      72     171      12      66      69      72     174      12
      69      72      75     177       4      69      72      75     180       4
      69      72      75     183       4      75      72      69     165       4
      75      72      69     168       4      78      66      69     165      23
      78      66      69     168      23      78      81      84     186      23
      78      81      84     189      23      81      84      87     192      12
      81      84      87     195      12      81      84      87     198      12
      90      81      84     186      23      90      81      84     189      23
      90      93      99     201      28      90      63      60     159      17
      90      63      60     162      17      96      93      99     201      29
      96      93     -99     201      28     102      57      54     156      19
     102      57      60     159      21     102      57      60     162      21
     105     102     108     204      19     108      48      51     153      19
     111       0       3     120      30     111       0       3     123      30
     114       0       3     120      30     114       0       3     123      30
     117       0       3     120      30     117       0       3     123      30
     120       3       6     126      30     120       3       6     129      30
     123       3       6     126      30     123       3       6     129      30
     126       6       9     132      30     126       6       9     135      30
     129       6       9     132      30     129       6       9     135      30
     141      33      36     144      19     144      36      39     147      19
     147      39      42     150      19     153      51      54     156      19
     165      69      72     171      30     165      69      72     174      30
     168      69      72     171      30     168      69      72     174      30
     171      72      75     177      30     171      72      75     180      30
     171      72      75     183      30     174      72      75     177      30
     174      72      75     180      30     174      72      75     183      30
     186      84      87     192      30     186      84      87     195      30
     186      84      87     198      30     189      84      87     192      30
     189      84      87     195      30     189      84      87     198      30
      12     138     -18     -21      32      30      36     -33    -141      32
      33      39     -36    -144      32      36      42     -39    -147      32
      39      45     -42    -150      32      54      48     -51    -153      32
      51      57     -54    -156      32     102      48    -108    -204      32
%FLAG DIHEDRALS_WITHOUT_HYDROGEN                                                
%FORMAT(10I8)                                                                   
       0       3       6       9       1       0       3      -6       9       2
       0       3      -6       9       3       3       6       9      12       5
       6       9      12      15       6       6       9     -12      15       7
       6       9     -12      15       8       6       9      12      18       9
       6       9     -12      18      10       9      12      18      21      11
      12      18      21      24      13      12      18      21      27      13
      12      18      21      30      13      15      12      18      21      11
      18      21      30      33      18      18      21      30      45      18
      21      30      33      36      19      21      30      45      42      19
      21      30      45      48      19      24      21      30      33      18
      24      21      30      45      18      27      21      30      33      18
      27      21      30      45      18      30      33      36      39      19
      30      45     -42      39      19      30      45      48      51      20
      30      45      48     108      20      33      30      45      42      19
      33      30      45      48      19      33      36     -39      42      19
      36      33      30      45      19      36      39     -42      45      19
      39      42      45      48      19      42      45      48      51      20
      42      45      48     108      20      45      48      51      54      19
      45      48     108     102      19      48      51      54      57      19
      48     108    -102      57      19      48     108     102     105      19
      51      48     108     102      19      51      54      57      60      19
      51      54     -57     102      19      54      51      48     108      19
      54      57      60      63      21      54      57     102     105      19
      54      57    -102     108      19      57      60      63      66      21
      57      60      63      90      21      60      57     102     105      19
      60      57     102     108      19      60      63      66      69      22
      60      63      66      78      22      60      63      90      81      22
      60      63      90      93      22      63      60      57     102      21
      63      66      69      72      23      63      66     -78      81      24
      63      90     -81      78      25      63      90      81      84      25
      63      90      93      96      26      63      90      93      99      26
      66      63     -90      81      22      66      63      90      93      22
      66      69      72      75      12      66      78      81      84      24
      66      78     -81      90      24      69      66      63      90      22
      69      66      78      81      24      72      69      66      78      23
      78      66     -63      90      22      78      81      84      87      23
      78      81      90      93      25      81      90      93      96      26
      81      90      93      99      26      84      81      90      93      25
      87      84      81      90      27       9      18     -12     -15      31
      33      45     -30     -21      32      30      42     -45     -48      32
      51     108     -48     -45      32      54     102     -57     -60      32
      60      66     -63     -90      32      69      63     -66     -78      32
      84      90     -81     -78      32      93      81     -90     -63      32
      90      96     -93     -99      32      57     108    -102    -105      32
%FLAG EXCLUDED_ATOMS_LIST                                                       
%FORMAT(10I8)                                                                   
       2       3       4      38      39      40      41      42      43      44
       3       4       5      38      39      40      41      42      43      44
      45      46       4       5       6       7      38      39      40      41
      42      43      44      45      46       5       6       7       8      41
      42      43      44      45      46      47       6       7       8       9
      10      11      43      44      45      46      47       7       8      45
      46      47       8       9      10      11      12      16      45      46
      47       9      10      11      12      13      15      16      17      47
      48      10      11      12      16      47      11      12      16      47
      12      13      14      15      16      17      18      37      47      48
      49      51      13      14      15      16      17      48      49      50
      14      15      16      48      49      50      51      15      16      17
      48      49      50      51      16      17      18      37      49      50
      51      17      18      19      35      37      48      50      51      52
      69      18      19      20      35      36      37      51      52      53
      69      19      20      21      35      37      52      53      69      20
      21      22      35      36      37      52      53      54      55      21
      22      23      31      35      36      37      52      53      54      55
      69      22      23      24      27      28      31      32      35      36
      37      53      54      55      23      24      25      27      28      29
      31      32      33      34      35      54      55      56      57      24
      25      26      27      28      29      31      32      54      55      56
      57      58      59      25      26      27      28      31      56      57
      58      59      60      61      62      26      27      56      57      58
      59      60      61      62      56      57      58      59      60      61
      62      28      29      30      31      32      56      57      63      64
      29      30      31      32      33      34      63      64      65      66
      67      30      31      32      63      64      65      66      67      31
      63      64      65      66      67      32      33      34      54      55
      63      64      68      33      34      68      34      68      68      36
      37      53      54      55      69      37      69      52      69      39
      40      41      42      40      41      42      41      42      42      43
      44      43      44      44      45      46      45      46      46       0
       0      49      50      51       0      53       0      55       0      57
      58      59      58      59      59      60      61      62      60      61
      62      61      62      62       0      64      65      66      67      65
      66      67      66      67      67       0       0       0
%FLAG HBOND_ACOEF                                                               
%FORMAT(5E16.8)                                                                 

%FLAG HBOND_BCOEF                                                               
%FORMAT(5E16.8)                                                                 

%FLAG HBCUT                                                                     
%FORMAT(5E16.8)                                                                 

%FLAG AMBER_ATOM_TYPE                                                           
%FORMAT(20a4)                                                                   
c3  c3  c3  c3  c   o   ns  sy  o   o   ca  ca  ca  ca  ca  cp  cp  ca  ca  ca  
c3  na  cc  c3  c3  c3  nd  cd  c3  c3  cc  c   o   oh  ca  f   ca  hc  hc  hc  
hc  hc  hc  hc  hc  hc  hn  ha  ha  ha  ha  ha  ha  h1  h1  hc  hc  hc  hc  hc  
hc  hc  hc  hc  hc  hc  hc  ho  ha  
%FLAG TREE_CHAIN_CLASSIFICATION                                                 
%FORMAT(20a4)                                                                   
BLA BLA BLA BLA BLA BLA BLA BLA BLA BLA BLA BLA BLA BLA BLA BLA BLA BLA BLA BLA 
BLA BLA BLA BLA BLA BLA BLA BLA BLA BLA BLA BLA BLA BLA BLA BLA BLA BLA BLA BLA 
BLA BLA BLA BLA BLA BLA BLA BLA BLA BLA BLA BLA BLA BLA BLA BLA BLA BLA BLA BLA 
BLA BLA BLA BLA BLA BLA BLA BLA BLA 
%FLAG JOIN_ARRAY                                                                
%FORMAT(10I8)                                                                   
       0       0       0       0       0       0       0       0       0       0
       0       0       0       0       0       0       0       0       0       0
       0       0       0       0       0       0       0       0       0       0
       0       0       0       0       0       0       0       0       0       0
       0       0       0       0       0       0       0       0       0       0
       0       0       0       0       0       0       0       0       0       0
       0       0       0       0       0       0       0       0       0
%FLAG IROTAT                                                                    
%FORMAT(10I8)                                                                   
       0       0       0       0       0       0       0       0       0       0
       0       0       0       0       0       0       0       0       0       0
       0       0       0       0       0       0       0       0       0       0
       0       0       0       0       0       0       0       0       0       0
       0       0       0       0       0       0       0       0       0       0
       0       0       0       0       0       0       0       0       0       0
       0       0       0       0       0       0       0       0       0
%FLAG RADIUS_SET                                                                
%FORMAT(1a80)                                                                   
modified Bondi radii (mbondi)                                                   
%FLAG RADII                                                                     
%FORMAT(5E16.8)                                                                 
  1.70000000E+00  1.70000000E+00  1.70000000E+00  1.70000000E+00  1.70000000E+00
  1.50000000E+00  1.55000000E+00  1.80000000E+00  1.50000000E+00  1.50000000E+00
  1.70000000E+00  1.70000000E+00  1.70000000E+00  1.70000000E+00  1.70000000E+00
  1.70000000E+00  1.70000000E+00  1.70000000E+00  1.70000000E+00  1.70000000E+00
  1.70000000E+00  1.55000000E+00  1.70000000E+00  1.70000000E+00  1.70000000E+00
  1.70000000E+00  1.55000000E+00  1.70000000E+00  1.70000000E+00  1.70000000E+00
  1.70000000E+00  1.70000000E+00  1.50000000E+00  1.50000000E+00  1.70000000E+00
  1.50000000E+00  1.70000000E+00  1.30000000E+00  1.30000000E+00  1.30000000E+00
  1.30000000E+00  1.30000000E+00  1.30000000E+00  1.30000000E+00  1.30000000E+00
  1.30000000E+00  1.30000000E+00  1.30000000E+00  1.30000000E+00  1.30000000E+00
  1.30000000E+00  1.30000000E+00  1.30000000E+00  1.30000000E+00  1.30000000E+00
  1.30000000E+00  1.30000000E+00  1.30000000E+00  1.30000000E+00  1.30000000E+00
  1.30000000E+00  1.30000000E+00  1.30000000E+00  1.30000000E+00  1.30000000E+00
  1.30000000E+00  1.30000000E+00  8.00000000E-01  1.30000000E+00
%FLAG SCREEN                                                                    
%FORMAT(5E16.8)                                                                 
  7.20000000E-01  7.20000000E-01  7.20000000E-01  7.20000000E-01  7.20000000E-01
  8.50000000E-01  7.90000000E-01  9.60000000E-01  8.50000000E-01  8.50000000E-01
  7.20000000E-01  7.20000000E-01  7.20000000E-01  7.20000000E-01  7.20000000E-01
  7.20000000E-01  7.20000000E-01  7.20000000E-01  7.20000000E-01  7.20000000E-01
  7.20000000E-01  7.90000000E-01  7.20000000E-01  7.20000000E-01  7.20000000E-01
  7.20000000E-01  7.90000000E-01  7.20000000E-01  7.20000000E-01  7.20000000E-01
  7.20000000E-01  7.20000000E-01  8.50000000E-01  8.50000000E-01  7.20000000E-01
  8.80000000E-01  7.20000000E-01  8.50000000E-01  8.50000000E-01  8.50000000E-01
  8.50000000E-01  8.50000000E-01  8.50000000E-01  8.50000000E-01  8.50000000E-01
  8.50000000E-01  8.50000000E-01  8.50000000E-01  8.50000000E-01  8.50000000E-01
  8.50000000E-01  8.50000000E-01  8.50000000E-01  8.50000000E-01  8.50000000E-01
  8.50000000E-01  8.50000000E-01  8.50000000E-01  8.50000000E-01  8.50000000E-01
  8.50000000E-01  8.50000000E-01  8.50000000E-01  8.50000000E-01  8.50000000E-01
  8.50000000E-01  8.50000000E-01  8.50000000E-01  8.50000000E-01
%FLAG IPOL                                                                      
%FORMAT(1I8)                                                                    
       0
