MOL
    73
  -4.1380000   0.0800000   0.1600000  -3.4010000  -1.1010000   0.4480000
  -3.0390000  -1.8070000  -0.7420000  -2.0450000  -2.9120000  -0.3940000
  -0.7470000  -2.3570000  -0.0300000  -0.4190000  -1.9730000   1.2430000
   0.8070000  -1.3310000   1.2120000   1.5180000  -0.6100000   2.3350000
   1.1110000   0.8650000   2.4470000   1.9110000   1.7140000   2.8290000
  -0.2200000   1.1940000   2.1190000  -0.8200000   2.7370000   2.0250000
  -2.1390000   2.6440000   1.4330000  -0.6550000   3.3590000   3.3230000
   0.2490000   3.5390000   0.8590000   0.9760000   4.6590000   1.2810000
   1.8230000   5.3140000   0.3900000   1.9550000   4.8510000  -0.9220000
   2.8480000   5.5720000  -1.8900000   1.2100000   3.7340000  -1.3390000
   0.3540000   3.0640000  -0.4560000  -0.3750000   1.9550000  -0.7870000
  -0.4020000   1.5650000  -2.1550000   1.3360000  -1.4400000   3.6010000
   2.1180000  -2.6160000   3.7650000   1.9960000  -3.4240000   4.9000000
   1.0910000  -3.0400000   5.8610000   0.3240000  -1.9090000   5.7210000
   0.4190000  -1.0910000   4.6110000  -0.5090000  -1.7120000   6.7790000
  -0.1540000  -2.8330000   7.6140000   0.8390000  -3.6980000   7.0240000
   1.2670000  -1.4100000  -0.1470000   2.4290000  -0.9600000  -0.8080000
   2.5730000  -1.1720000  -2.1850000   1.5730000  -1.8070000  -2.9280000
   1.7610000  -2.0360000  -4.4090000   0.5330000  -1.7900000  -5.0980000
   0.6670000  -2.0100000  -6.4950000   0.4150000  -2.2690000  -2.2790000
   0.2810000  -2.0570000  -0.8960000  -3.5290000   0.7750000  -0.4240000
  -5.0540000  -0.1660000  -0.3830000  -4.4070000   0.5590000   1.1060000
  -2.6100000  -1.1150000  -1.4760000  -3.9460000  -2.2510000  -1.1660000
  -1.8950000  -3.5890000  -1.2400000  -2.3940000  -3.5020000   0.4600000
  -1.1150000  -2.1330000   2.0590000   2.5940000  -0.5920000   2.1150000
  -0.8300000   0.5100000   1.6780000   0.8950000   5.0210000   2.3050000
   2.3850000   6.1810000   0.7300000   2.2970000   6.3840000  -2.3750000
   3.2220000   4.8890000  -2.6610000   3.7210000   5.9890000  -1.3770000
   1.3280000   3.4000000  -2.3650000  -1.0850000   0.7160000  -2.2490000
   0.5880000   1.2400000  -2.4910000  -0.7860000   2.3730000  -2.7890000
   2.8240000  -2.9090000   2.9880000   2.5920000  -4.3220000   5.0180000
  -0.2120000  -0.2100000   4.5500000   0.2350000  -2.4510000   8.5650000
  -1.0560000  -3.4210000   7.8150000   3.2160000  -0.4480000  -0.2610000
   3.4800000  -0.8220000  -2.6720000   2.5260000  -1.3560000  -4.8020000
   2.0820000  -3.0720000  -4.5710000   0.9740000  -3.0420000  -6.6960000
  -0.3060000  -1.8360000  -6.9650000   1.3890000  -1.3090000  -6.9260000
  -0.3640000  -2.7680000  -2.8490000
