%VERSION  VERSION_STAMP = V0001.000  DATE = 07/11/26  13:56:46                  
%FLAG TITLE                                                                     
%FORMAT(20a4)                                                                   
MOL                                                                             
%FLAG POINTERS                                                                  
%FORMAT(10I8)                                                                   
      73      13      32      45      69      65     102     103       0       0
     384       1      45      65     103      23      46      26      16       0
       0       0       0       0       0       0       0       0      73       0
       0
%FLAG ATOM_NAME                                                                 
%FORMAT(20a4)                                                                   
C1  O1  C2  C3  N1  C4  C5  C6  C7  O2  N2  S1  O3  O4  C8  C9  C10 C11 C12 C13 
C14 O5  C15 C16 C17 C18 C19 C20 C21 O6  C22 O7  C23 C24 C25 C26 C27 O8  C28 C29 
C30 H1  H2  H3  H4  H5  H6  H7  H8  H9  H10 H11 H12 H13 H14 H15 H16 H17 H18 H19 
H20 H21 H22 H23 H24 H25 H26 H27 H28 H29 H30 H31 H32 
%FLAG CHARGE                                                                    
%FORMAT(5E16.8)                                                                 
  1.96254171E+00 -7.97407848E+00  1.84774122E+00  6.25024890E-01 -1.11884922E+00
 -1.14982713E+00 -3.21441372E+00  1.45778400E-02  1.27027653E+01 -1.04249778E+01
 -1.21415185E+01  2.77507407E+01 -1.18226282E+01 -1.18226282E+01 -7.64425485E+00
  4.37335200E-01 -3.55334850E+00  5.22980010E-01 -1.27191654E+00 -4.33690740E+00
  4.61206413E+00 -6.13909287E+00  2.14476471E+00 -1.35391689E+00 -2.02267530E+00
 -2.04089760E+00  1.09516023E+00  1.07693793E+00 -1.98623070E+00 -6.04798137E+00
  5.85300276E+00 -6.08442597E+00 -1.38125034E+00 -1.67645160E+00 -2.71512270E+00
 -1.44502839E+00  3.16521351E+00 -7.73718858E+00  2.10832011E+00 -2.00445300E+00
 -1.00587096E+00  8.81357984E-01  8.81357984E-01  8.81357984E-01  7.05203010E-01
  7.05203010E-01  1.33387236E+00  1.33387236E+00  3.38934780E+00  1.72565181E+00
  6.35047155E+00  3.13423560E+00  2.62401120E+00  9.90691784E-01  9.90691784E-01
  9.90691784E-01  2.62401120E+00  9.48160936E-01  9.48160936E-01  9.48160936E-01
  2.58756660E+00  2.86090110E+00  2.84267880E+00  1.33387236E+00  1.33387236E+00
  2.49645510E+00  2.36889900E+00  6.77869560E-01  6.77869560E-01  6.20159536E-01
  6.20159536E-01  6.20159536E-01  2.75156730E+00
%FLAG ATOMIC_NUMBER                                                             
%FORMAT(10I8)                                                                   
       6       8       6       6       7       6       6       6       6       8
       7      16       8       8       6       6       6       6       6       6
       6       8       6       6       6       6       6       6       6       8
       6       8       6       6       6       6       6       8       6       6
       6       1       1       1       1       1       1       1       1       1
       1       1       1       1       1       1       1       1       1       1
       1       1       1       1       1       1       1       1       1       1
       1       1       1
%FLAG MASS                                                                      
%FORMAT(5E16.8)                                                                 
  1.20100000E+01  1.60000000E+01  1.20100000E+01  1.20100000E+01  1.40100000E+01
  1.20100000E+01  1.20100000E+01  1.20100000E+01  1.20100000E+01  1.60000000E+01
  1.40100000E+01  3.20600000E+01  1.60000000E+01  1.60000000E+01  1.20100000E+01
  1.20100000E+01  1.20100000E+01  1.20100000E+01  1.20100000E+01  1.20100000E+01
  1.20100000E+01  1.60000000E+01  1.20100000E+01  1.20100000E+01  1.20100000E+01
  1.20100000E+01  1.20100000E+01  1.20100000E+01  1.20100000E+01  1.60000000E+01
  1.20100000E+01  1.60000000E+01  1.20100000E+01  1.20100000E+01  1.20100000E+01
  1.20100000E+01  1.20100000E+01  1.60000000E+01  1.20100000E+01  1.20100000E+01
  1.20100000E+01  1.00800000E+00  1.00800000E+00  1.00800000E+00  1.00800000E+00
  1.00800000E+00  1.00800000E+00  1.00800000E+00  1.00800000E+00  1.00800000E+00
  1.00800000E+00  1.00800000E+00  1.00800000E+00  1.00800000E+00  1.00800000E+00
  1.00800000E+00  1.00800000E+00  1.00800000E+00  1.00800000E+00  1.00800000E+00
  1.00800000E+00  1.00800000E+00  1.00800000E+00  1.00800000E+00  1.00800000E+00
  1.00800000E+00  1.00800000E+00  1.00800000E+00  1.00800000E+00  1.00800000E+00
  1.00800000E+00  1.00800000E+00  1.00800000E+00
%FLAG ATOM_TYPE_INDEX                                                           
%FORMAT(10I8)                                                                   
       1       2       1       1       3       4       4       1       4       5
       6       7       5       5       4       4       4       4       1       4
       4       2       1       4       4       4       4       4       4       2
       1       2       4       4       4       4       1       2       1       4
       4       8       8       8       8       8       8       8       9      10
      11      12      12      10      10      10      12       8       8       8
      12      12      12      13      13      12      12       8       8       8
       8       8      12
%FLAG NUMBER_EXCLUDED_ATOMS                                                     
%FORMAT(10I8)                                                                   
       8      10      11      11      14      12      15      17      12       5
       9      10       5       4      11       8      10      10       7       8
       7       5       3      11       9       8      10       8       6       5
       3       3      10       7      10      10      11       7       5       5
       5       2       1       1       3       2       1       1       1       1
       1       1       1       2       1       1       1       2       1       1
       1       1       1       1       1       1       1       1       1       2
       1       1       1
%FLAG NONBONDED_PARM_INDEX                                                      
%FORMAT(10I8)                                                                   
       1       2       4       7      11      16      22      29      37      46
      56      67      79       2       3       5       8      12      17      23
      30      38      47      57      68      80       4       5       6       9
      13      18      24      31      39      48      58      69      81       7
       8       9      10      14      19      25      32      40      49      59
      70      82      11      12      13      14      15      20      26      33
      41      50      60      71      83      16      17      18      19      20
      21      27      34      42      51      61      72      84      22      23
      24      25      26      27      28      35      43      52      62      73
      85      29      30      31      32      33      34      35      36      44
      53      63      74      86      37      38      39      40      41      42
      43      44      45      54      64      75      87      46      47      48
      49      50      51      52      53      54      55      65      76      88
      56      57      58      59      60      61      62      63      64      65
      66      77      89      67      68      69      70      71      72      73
      74      75      76      77      78      90      79      80      81      82
      83      84      85      86      87      88      89      90      91
%FLAG RESIDUE_LABEL                                                             
%FORMAT(20a4)                                                                   
MOL 
%FLAG RESIDUE_POINTER                                                           
%FORMAT(10I8)                                                                   
       1
%FLAG BOND_FORCE_CONSTANT                                                       
%FORMAT(5E16.8)                                                                 
  2.84800000E+02  3.75900000E+02  2.32500000E+02  2.62900000E+02  3.54500000E+02
  3.49500000E+02  4.16100000E+02  4.03900000E+02  2.62600000E+02  3.08200000E+02
  2.43200000E+02  2.50300000E+02  3.75900000E+02  6.52600000E+02  3.56200000E+02
  2.85300000E+02  5.27300000E+02  6.53200000E+02  2.09800000E+02  3.78600000E+02
  3.95700000E+02  3.57500000E+02  3.77300000E+02
%FLAG BOND_EQUIL_VALUE                                                          
%FORMAT(5E16.8)                                                                 
  1.43200000E+00  1.09700000E+00  1.53800000E+00  1.46300000E+00  1.38000000E+00
  1.38400000E+00  1.37300000E+00  1.08200000E+00  1.50200000E+00  1.45600000E+00
  1.52400000E+00  1.51600000E+00  1.09700000E+00  1.21800000E+00  1.37900000E+00
  1.71600000E+00  1.01300000E+00  1.46600000E+00  1.79100000E+00  1.39800000E+00
  1.08600000E+00  1.37000000E+00  1.09600000E+00
%FLAG ANGLE_FORCE_CONSTANT                                                      
%FORMAT(5E16.8)                                                                 
  6.63000000E+01  6.24000000E+01  8.53000000E+01  8.27000000E+01  4.69000000E+01
  6.37000000E+01  6.42000000E+01  6.15000000E+01  9.27000000E+01  6.15000000E+01
  8.72000000E+01  6.94000000E+01  6.68000000E+01  6.98000000E+01  4.78000000E+01
  6.55000000E+01  6.57000000E+01  4.77000000E+01  6.71000000E+01  6.33000000E+01
  8.46000000E+01  8.43000000E+01  6.56000000E+01  6.58000000E+01  4.74000000E+01
  6.23000000E+01  4.87000000E+01  1.13800000E+02  1.22200000E+02  9.05000000E+01
  4.33000000E+01  6.34000000E+01  1.26400000E+02  9.43000000E+01  6.88000000E+01
  4.87000000E+01  8.73000000E+01  4.73000000E+01  6.61000000E+01  1.10900000E+02
  6.24000000E+01  8.56000000E+01  4.75000000E+01  3.88000000E+01  3.90000000E+01
  3.85000000E+01
%FLAG ANGLE_EQUIL_VALUE                                                         
%FORMAT(5E16.8)                                                                 
  1.96314718E+00  1.91602327E+00  1.88443280E+00  1.97012850E+00  1.91218355E+00
  2.20714432E+00  2.17049239E+00  1.89856997E+00  1.86732857E+00  2.10364625E+00
  2.06542352E+00  1.97484090E+00  2.08479669E+00  1.98112408E+00  2.24239998E+00
  1.97518996E+00  1.97012850E+00  1.92841512E+00  2.10818411E+00  2.20819152E+00
  2.15024656E+00  2.01027109E+00  2.10783504E+00  1.93749083E+00  1.89839544E+00
  2.17625198E+00  2.05163542E+00  2.14762857E+00  1.87692788E+00  1.83905422E+00
  1.96052919E+00  2.08427309E+00  2.11900515E+00  1.89106506E+00  2.09474507E+00
  2.09230160E+00  2.08043336E+00  1.92806605E+00  2.05879127E+00  1.89001786E+00
  1.91253261E+00  1.90153704E+00  1.91218355E+00  1.89298492E+00  1.87762601E+00
  1.92335366E+00
%FLAG DIHEDRAL_FORCE_CONSTANT                                                   
%FORMAT(5E16.8)                                                                 
  0.00000000E+00  1.60000000E-01  2.40000000E-01  3.37000000E-01  1.55555556E-01
  2.50000000E-01  0.00000000E+00  0.00000000E+00  1.70000000E+00  3.00000000E-01
  4.00000000E+00  3.62500000E+00  0.00000000E+00  6.03000000E-01  5.05000000E-01
  5.40000000E-01  2.50000000E+00  1.10000000E+00  8.30000000E-01  4.00000000E-02
  2.00000000E+00  1.30000000E+00  1.61000000E+00  3.83333333E-01  1.10000000E+00
  1.05000000E+01
%FLAG DIHEDRAL_PERIODICITY                                                      
%FORMAT(5E16.8)                                                                 
  1.00000000E+00  2.00000000E+00  3.00000000E+00  3.00000000E+00  3.00000000E+00
  1.00000000E+00  3.00000000E+00  2.00000000E+00  2.00000000E+00  2.00000000E+00
  2.00000000E+00  2.00000000E+00  2.00000000E+00  2.00000000E+00  2.00000000E+00
  2.00000000E+00  2.00000000E+00  2.00000000E+00  1.00000000E+00  3.00000000E+00
  1.00000000E+00  2.00000000E+00  2.00000000E+00  3.00000000E+00  2.00000000E+00
  2.00000000E+00
%FLAG DIHEDRAL_PHASE                                                            
%FORMAT(5E16.8)                                                                 
  0.00000000E+00  0.00000000E+00  0.00000000E+00  0.00000000E+00  0.00000000E+00
  0.00000000E+00  0.00000000E+00  0.00000000E+00  3.14159400E+00  3.14159400E+00
  3.14159400E+00  3.14159400E+00  3.14159400E+00  3.14159400E+00  3.14159400E+00
  3.14159400E+00  3.14159400E+00  3.14159400E+00  0.00000000E+00  3.14159400E+00
  0.00000000E+00  3.14159400E+00  3.14159400E+00  0.00000000E+00  3.14159400E+00
  3.14159400E+00
%FLAG SCEE_SCALE_FACTOR                                                         
%FORMAT(5E16.8)                                                                 
  1.20000000E+00  1.20000000E+00  1.20000000E+00  1.20000000E+00  1.20000000E+00
  1.20000000E+00  1.20000000E+00  1.20000000E+00  1.20000000E+00  1.20000000E+00
  1.20000000E+00  1.20000000E+00  1.20000000E+00  1.20000000E+00  1.20000000E+00
  1.20000000E+00  1.20000000E+00  1.20000000E+00  1.20000000E+00  1.20000000E+00
  1.20000000E+00  1.20000000E+00  1.20000000E+00  1.20000000E+00  0.00000000E+00
  0.00000000E+00
%FLAG SCNB_SCALE_FACTOR                                                         
%FORMAT(5E16.8)                                                                 
  2.00000000E+00  2.00000000E+00  2.00000000E+00  2.00000000E+00  2.00000000E+00
  2.00000000E+00  2.00000000E+00  2.00000000E+00  2.00000000E+00  2.00000000E+00
  2.00000000E+00  2.00000000E+00  2.00000000E+00  2.00000000E+00  2.00000000E+00
  2.00000000E+00  2.00000000E+00  2.00000000E+00  2.00000000E+00  2.00000000E+00
  2.00000000E+00  2.00000000E+00  2.00000000E+00  2.00000000E+00  0.00000000E+00
  0.00000000E+00
%FLAG SOLTY                                                                     
%FORMAT(5E16.8)                                                                 
  0.00000000E+00  0.00000000E+00  0.00000000E+00  0.00000000E+00  0.00000000E+00
  0.00000000E+00  0.00000000E+00  0.00000000E+00  0.00000000E+00  0.00000000E+00
  0.00000000E+00  0.00000000E+00  0.00000000E+00  0.00000000E+00  0.00000000E+00
  0.00000000E+00
%FLAG LENNARD_JONES_ACOEF                                                       
%FORMAT(5E16.8)                                                                 
  1.02073671E+06  5.42502534E+05  2.83662575E+05  9.96191545E+05  5.22690526E+05
  9.62429652E+05  8.43969952E+05  4.46121722E+05  8.20152428E+05  6.96551276E+05
  6.30925504E+05  3.27367585E+05  6.04208667E+05  5.17507491E+05  3.76435470E+05
  8.48258258E+05  4.47026838E+05  8.22346035E+05  6.99381362E+05  5.17814271E+05
  7.01825028E+05  2.09089895E+06  1.12086734E+06  2.05449504E+06  1.73376823E+06
  1.30884564E+06  1.74537186E+06  4.26366419E+06  6.97998263E+04  3.44374471E+04
  6.42436358E+04  5.63013422E+04  3.86646725E+04  5.58085097E+04  1.48672098E+05
  3.39005767E+03  7.75673747E+04  3.86549715E+04  7.19580450E+04  6.27751680E+04
  4.36069364E+04  6.23418310E+04  1.64354276E+05  3.94664935E+03  4.56536476E+03
  1.00235148E+05  5.02224902E+04  9.33839501E+04  8.12662403E+04  5.68021765E+04
  8.07866982E+04  2.11783234E+05  5.22955465E+03  6.02863188E+03  7.94617769E+03
  2.23577481E+03  9.46795083E+02  1.82491629E+03  1.71458823E+03  9.87857350E+02
  1.65195713E+03  5.15374979E+03  5.24570081E+01  6.76796831E+01  9.47421632E+01
  1.34728399E-01  9.27554496E+04  4.65732396E+04  8.65595848E+04  7.52549148E+04
  5.27277400E+04  7.48403283E+04  1.95762765E+05  4.88692384E+03  5.62610481E+03
  7.41026906E+03  9.04434904E+01  6.90855956E+03  4.80619274E+04  2.33261683E+04
  4.36678042E+04  3.85565555E+04  2.59855087E+04  3.81023323E+04  1.03252037E+05
  2.16218723E+03  2.54392426E+03  3.39005767E+03  2.81680913E+01  3.17496391E+03
  1.35510742E+03
%FLAG LENNARD_JONES_BCOEF                                                       
%FORMAT(5E16.8)                                                                 
  6.63431737E+02  4.38146883E+02  2.87011518E+02  7.68900328E+02  5.04545572E+02
  8.86629877E+02  5.90251928E+02  3.88758656E+02  6.82622272E+02  5.24668528E+02
  5.62969425E+02  3.67361018E+02  6.46321327E+02  4.98871431E+02  4.69350655E+02
  6.17825399E+02  4.06301077E+02  7.13654906E+02  5.48900066E+02  5.21008860E+02
  5.74088001E+02  1.20800124E+03  8.01230425E+02  1.40479403E+03  1.07629402E+03
  1.03157656E+03  1.12747567E+03  2.19459223E+03  1.14981426E+02  7.31636661E+01
  1.29412081E+02  1.01040256E+02  9.23664132E+01  1.05029928E+02  2.13489607E+02
  1.67944276E+01  1.13692208E+02  7.27065100E+01  1.28466555E+02  1.00073628E+02
  9.20079458E+01  1.04122183E+02  2.10544132E+02  1.69967767E+01  1.71467049E+01
  1.37787728E+02  8.83545880E+01  1.56025608E+02  1.21392023E+02  1.11953944E+02
  1.26366740E+02  2.54804909E+02  2.08590256E+01  2.10068861E+01  2.57122925E+01
  1.71355763E+01  1.01016461E+01  1.81620725E+01  1.46824710E+01  1.22938581E+01
  1.50468782E+01  3.30984635E+01  1.73959275E+00  1.85338491E+00  2.33785449E+00
  7.34107347E-02  1.24325688E+02  7.98066064E+01  1.40899023E+02  1.09570372E+02
  1.01173582E+02  1.14083104E+02  2.29782888E+02  1.89134207E+01  1.90347353E+01
  2.32899892E+01  2.14252117E+00  2.10929191E+01  9.54115851E+01  6.02145835E+01
  1.06694109E+02  8.36149973E+01  7.57220777E+01  8.67837942E+01  1.77914489E+02
  1.34124560E+01  1.36459692E+01  1.67944276E+01  1.27474859E+00  1.52447987E+01
  1.06181419E+01
%FLAG BONDS_INC_HYDROGEN                                                        
%FORMAT(10I8)                                                                   
       0     123       2       0     126       2       0     129       2       6
     132       2       6     135       2       9     138       2       9     141
       2      15     144       8      21     147      13      30     150      17
      45     153      21      48     156      21      54     159      13      54
     162      13      54     165      13      57     168      21      66     171
       2      66     174       2      66     177       2      72     180      21
      75     183      21      84     186      21      90     189      23      90
     192      23      99     195      21     102     198      21     108     201
       2     108     204       2     114     207       2     114     210       2
     114     213       2     117     216      21
%FLAG BONDS_WITHOUT_HYDROGEN                                                    
%FORMAT(10I8)                                                                   
       0       3       1       3       6       1       6       9       3       9
      12       4      12      15       5      12     120       6      15      18
       7      18      21       9      18      96      10      21      24      11
      21      69      12      24      27      14      24      30      15      30
      33      16      33      36      18      33      39      18      33      42
      19      42      45      20      42      60      20      45      48      20
      48      51      20      51      54      12      51      57      20      57
      60      20      60      63      22      63      66       1      69      72
      20      69      84      20      72      75      20      75      78      20
      78      81      20      78      93      22      81      84      20      81
      87      22      87      90       1      90      93       1      96      99
      20      96     120      20      99     102      20     102     105      20
     105     108      12     105     117      20     108     111       1     111
     114       1     117     120      20
%FLAG ANGLES_INC_HYDROGEN                                                       
%FORMAT(10I8)                                                                   
       3       0     123       2       3       0     126       2       3       0
     129       2       3       6     132       2       3       6     135       2
       6       9     138       5       6       9     141       5       9       6
     132       5       9       6     135       5      12       9     138       8
      12       9     141       8      12      15     144      10      18      15
     144      15      18      21     147      18      24      21     147      25
      24      30     150      27      33      30     150      31      42      45
     153      36      45      48     156      36      48      45     153      36
      51      48     156      36      51      54     159      38      51      54
     162      38      51      54     165      38      51      57     168      36
      60      57     168      36      63      66     171       2      63      66
     174       2      63      66     177       2      69      21     147      38
      69      72     180      36      69      84     186      36      72      75
     183      36      75      72     180      36      78      75     183      36
      81      84     186      36      87      90     189      41      87      90
     192      41      93      90     189      41      93      90     192      41
      96      99     195      36      99     102     198      36     102      99
     195      36     105     102     198      36     105     108     201      43
     105     108     204      43     105     117     216      36     111     108
     201       2     111     108     204       2     111     114     207       2
     111     114     210       2     111     114     213       2     120     117
     216      36     123       0     126      44     123       0     129      44
     126       0     129      44     132       6     135      44     138       9
     141      44     159      54     162      45     159      54     165      45
     162      54     165      45     171      66     174      44     171      66
     177      44     174      66     177      44     189      90     192      46
     201     108     204      44     207     114     210      44     207     114
     213      44     210     114     213      44
%FLAG ANGLES_WITHOUT_HYDROGEN                                                   
%FORMAT(10I8)                                                                   
       0       3       6       1       3       6       9       3       6       9
      12       4       9      12      15       6       9      12     120       7
      12      15      18       9      12     120     117      11      12     120
      96      11      15      12     120      12      15      18      21      13
      15      18      96      14      18      21      24      16      18      21
      69      17      18      96      99      19      18      96     120      19
      21      18      96      20      21      24      27      21      21      24
      30      22      21      69      72      23      21      69      84      23
      24      21      69      24      24      30      33      26      27      24
      30      28      30      33      36      29      30      33      39      29
      30      33      42      30      33      42      45      32      33      42
      60      32      36      33      39      33      36      33      42      34
      39      33      42      34      42      45      48      35      42      60
      57      35      42      60      63      37      45      42      60      35
      45      48      51      35      48      51      54      23      48      51
      57      35      51      57      60      35      54      51      57      23
      57      60      63      37      60      63      66      39      69      72
      75      35      69      84      81      35      72      69      84      35
      72      75      78      35      75      78      81      35      75      78
      93      37      78      81      84      35      78      81      87      37
      78      93      90      39      81      78      93      37      81      87
      90      39      84      81      87      37      87      90      93      40
      96      99     102      35      96     120     117      35      99      96
     120      35      99     102     105      35     102     105     108      23
     102     105     117      35     105     108     111      42     105     117
     120      35     108     105     117      23     108     111     114       1
%FLAG DIHEDRALS_INC_HYDROGEN                                                    
%FORMAT(10I8)                                                                   
       0       3       6     132       4       0       3       6     135       4
       3       6       9     138       6       3       6      -9     138       7
       3       6       9     141       6       3       6      -9     141       7
     123       0       3       6       4     126       0       3       6       4
     129       0       3       6       4       9      12      15     144       9
      12       9       6     132       5      12       9       6     135       5
      12     120     117     216      12      15      12       9     138      13
      15      12       9     141      13      15      18      21     147       7
      18      96      99     195      12      21      18      15     144      11
      21      24      30     150      17      21      69      72     180      12
      21      69      84     186      12      27      24      21     147      19
      27      24     -21     147      20      27      24      30     150      21
      27      24     -30     150      17      30      24      21     147      13
      33      42      45     153      12      36      33      30     150      18
      39      33      30     150      18      42      33      30     150      18
      42      45      48     156      12      42      60      57     168      12
      48      51      54     159      13      48      51      54     162      13
      48      51      54     165      13      48      51      57     168      12
      51      48      45     153      12      54      51      48     156      12
      54      51      57     168      12      57      51      48     156      12
      57      51      54     159      13      57      51      54     162      13
      57      51      54     165      13      60      63      66     171      24
      60      63      66     174      24      60      63      66     177      24
      60      42      45     153      12      63      60      57     168      12
      69      72      75     183      12      72      69      21     147      13
      72      69      84     186      12      78      75      72     180      12
      78      81      84     186      12      78      93      90     189      24
      78      93      90     192      24      81      78      75     183      12
      81      87      90     189      24      81      87      90     192      24
      84      69      21     147      13      84      69      72     180      12
      87      81      84     186      12      93      78      75     183      12
      96      18      15     144      11      96      18      21     147       7
      96      99     102     198      12      96     120     117     216      12
     102     105     108     201       8     102     105     108     204       8
     102     105     117     216      12     105     102      99     195      12
     108     105     102     198      12     108     105     117     216      12
     108     111     114     207       4     108     111     114     210       4
     108     111     114     213       4     114     111     108     201       4
     114     111     108     204       4     117     105     102     198      12
     117     105     108     201       8     117     105     108     204       8
     120      12       9     138       8     120      12       9     141       8
     120      12      15     144       9     120      96      99     195      12
     132       6       9     138       5     132       6       9     141       5
     135       6       9     138       5     135       6       9     141       5
     153      45      48     156      12     180      72      75     183      12
     195      99     102     198      12      18     144     -15     -12      25
      24     150     -30     -33      25      42      48     -45    -153      25
      45      51     -48    -156      25      51      60     -57    -168      25
      69      75     -72    -180      25      72      78     -75    -183      25
      69      81     -84    -186      25      96     102     -99    -195      25
      99     105    -102    -198      25     105     120    -117    -216      25
%FLAG DIHEDRALS_WITHOUT_HYDROGEN                                                
%FORMAT(10I8)                                                                   
       0       3       6       9       1       0       3      -6       9       2
       0       3      -6       9       3       3       6       9      12       5
       6       9      12      15       8       6       9      12     120       8
       9      12      15      18       9       9      12     120     117      10
       9      12     120      96      10      12      15      18      21      11
      12      15     -18      96      11      12     120     117     105      12
      12     120     -96      18      12      12     120      96      99      12
      15      12     120     117      14      15      12    -120      96      14
      15      18      21      24       7      15      18      21      69       7
      15      18      96      99      15      15      18     -96     120      15
      18      15     -12     120       9      18      21      24      27      13
      18      21      24      30      13      18      21      69      72       8
      18      21      69      84       8      18      96      99     102      12
      18      96     120     117      12      21      18      96      99      16
      21      18      96     120      16      21      24      30      33      17
      21      69      72      75      12      21      69      84      81      12
      24      21      18      96       7      24      21      69      72       8
      24      21      69      84       8      24      30      33      36      18
      24      30      33      39      18      24      30      33      42      18
      27      24      21      69      13      27      24      30      33      17
      30      24      21      69      13      30      33      42      45      22
      30      33      42      60      22      33      42      45      48      12
      33      42      60      57      12      33      42      60      63      12
      36      33      42      45      22      36      33      42      60      22
      39      33      42      45      22      39      33      42      60      22
      42      45      48      51      12      42      60     -57      51      12
      42      60      63      66      23      45      42      60      57      12
      45      42      60      63      12      45      48      51      54      12
      45      48     -51      57      12      48      45      42      60      12
      48      51     -57      60      12      51      57      60      63      12
      54      51      57      60      12      57      60      63      66      23
      69      21      18      96       7      69      72      75      78      12
      69      84     -81      78      12      69      84      81      87      12
      72      69      84      81      12      72      75     -78      81      12
      72      75      78      93      12      75      72      69      84      12
      75      78     -81      84      12      75      78      81      87      12
      75      78      93      90      23      78      81     -87      90      23
      78      93     -90      87      24      81      78     -93      90      23
      81      87     -90      93      24      84      81      78      93      12
      84      81      87      90      23      87      81     -78      93      12
      96      99     102     105      12      96     120    -117     105      12
      99      96     120     117      12      99     102     105     108      12
      99     102    -105     117      12     102      99      96     120      12
     102     105     108     111       8     102     105    -117     120      12
     105     108     111     114      24     108     105     117     120      12
     111     108     105     117       8       9     120     -12     -15      25
      21      96     -18     -15      25      21      30     -24     -27      26
      45      60     -42     -33      25      48      57     -51     -54      25
      42      57     -60     -63      25      21      72     -69     -84      25
      75      81     -78     -93      25      78      84     -81     -87      25
      99     120     -96     -18      25     108     102    -105    -117      25
      96     117    -120     -12      25
%FLAG EXCLUDED_ATOMS_LIST                                                       
%FORMAT(10I8)                                                                   
       2       3       4      42      43      44      45      46       3       4
       5      42      43      44      45      46      47      48       4       5
       6      41      42      43      44      45      46      47      48       5
       6       7      33      40      41      45      46      47      48      49
       6       7       8      33      34      36      40      41      45      46
      47      48      49      73       7       8       9      24      33      34
      40      41      47      48      49      50       8       9      10      11
      24      25      29      33      34      35      40      41      49      50
      66       9      10      11      12      24      25      26      28      29
      33      34      41      49      50      51      61      63      10      11
      12      13      14      15      24      25      29      33      50      51
      11      12      24      50      51      12      13      14      15      16
      21      24      50      51      13      14      15      16      17      20
      21      22      51      52      14      15      16      21      51      15
      16      21      51      16      17      18      20      21      22      23
      51      52      53      57      17      18      19      20      21      22
      52      53      18      19      20      21      52      53      54      55
      56      57      19      20      21      22      52      53      54      55
      56      57      20      21      53      54      55      56      57      21
      22      23      53      54      55      56      57      22      23      52
      57      58      59      60      23      57      58      59      60      58
      59      60      25      26      27      28      29      30      33      50
      61      62      63      26      27      28      29      32      50      61
      62      63      27      28      29      30      31      32      61      62
      28      29      30      31      32      61      62      63      64      65
      29      30      31      32      62      63      64      65      30      31
      32      50      61      63      31      32      63      64      65      32
      64      65      62      64      65      34      35      36      40      41
      49      50      66      67      73      35      36      37      40      41
      66      67      36      37      38      40      41      66      67      68
      69      73      37      38      39      40      41      66      67      68
      69      73      38      39      40      41      67      68      69      70
      71      72      73      39      40      68      69      70      71      72
      68      69      70      71      72      41      67      68      69      73
      47      48      49      66      73      43      44      44       0      46
      47      48      47      48      48       0       0       0       0      53
       0      55      56      56       0       0      59      60      60       0
      62       0       0      65       0      67       0      69       0      71
      72      72       0       0
%FLAG HBOND_ACOEF                                                               
%FORMAT(5E16.8)                                                                 

%FLAG HBOND_BCOEF                                                               
%FORMAT(5E16.8)                                                                 

%FLAG HBCUT                                                                     
%FORMAT(5E16.8)                                                                 

%FLAG AMBER_ATOM_TYPE                                                           
%FORMAT(20a4)                                                                   
c3  os  c3  c3  na  cc  cd  c3  c   o   ns  sy  o   o   ca  ca  ca  ca  c3  ca  
ca  os  c3  ca  ca  ca  ca  ca  ca  os  c3  os  ca  ca  ca  ca  c3  os  c3  ca  
ca  h1  h1  h1  h1  h1  h1  h1  h4  hc  hn  ha  ha  hc  hc  hc  ha  h1  h1  h1  
ha  ha  ha  h2  h2  ha  ha  h1  h1  h1  h1  h1  ha  
%FLAG TREE_CHAIN_CLASSIFICATION                                                 
%FORMAT(20a4)                                                                   
BLA BLA BLA BLA BLA BLA BLA BLA BLA BLA BLA BLA BLA BLA BLA BLA BLA BLA BLA BLA 
BLA BLA BLA BLA BLA BLA BLA BLA BLA BLA BLA BLA BLA BLA BLA BLA BLA BLA BLA BLA 
BLA BLA BLA BLA BLA BLA BLA BLA BLA BLA BLA BLA BLA BLA BLA BLA BLA BLA BLA BLA 
BLA BLA BLA BLA BLA BLA BLA BLA BLA BLA BLA BLA BLA 
%FLAG JOIN_ARRAY                                                                
%FORMAT(10I8)                                                                   
       0       0       0       0       0       0       0       0       0       0
       0       0       0       0       0       0       0       0       0       0
       0       0       0       0       0       0       0       0       0       0
       0       0       0       0       0       0       0       0       0       0
       0       0       0       0       0       0       0       0       0       0
       0       0       0       0       0       0       0       0       0       0
       0       0       0       0       0       0       0       0       0       0
       0       0       0
%FLAG IROTAT                                                                    
%FORMAT(10I8)                                                                   
       0       0       0       0       0       0       0       0       0       0
       0       0       0       0       0       0       0       0       0       0
       0       0       0       0       0       0       0       0       0       0
       0       0       0       0       0       0       0       0       0       0
       0       0       0       0       0       0       0       0       0       0
       0       0       0       0       0       0       0       0       0       0
       0       0       0       0       0       0       0       0       0       0
       0       0       0
%FLAG RADIUS_SET                                                                
%FORMAT(1a80)                                                                   
modified Bondi radii (mbondi)                                                   
%FLAG RADII                                                                     
%FORMAT(5E16.8)                                                                 
  1.70000000E+00  1.50000000E+00  1.70000000E+00  1.70000000E+00  1.55000000E+00
  1.70000000E+00  1.70000000E+00  1.70000000E+00  1.70000000E+00  1.50000000E+00
  1.55000000E+00  1.80000000E+00  1.50000000E+00  1.50000000E+00  1.70000000E+00
  1.70000000E+00  1.70000000E+00  1.70000000E+00  1.70000000E+00  1.70000000E+00
  1.70000000E+00  1.50000000E+00  1.70000000E+00  1.70000000E+00  1.70000000E+00
  1.70000000E+00  1.70000000E+00  1.70000000E+00  1.70000000E+00  1.50000000E+00
  1.70000000E+00  1.50000000E+00  1.70000000E+00  1.70000000E+00  1.70000000E+00
  1.70000000E+00  1.70000000E+00  1.50000000E+00  1.70000000E+00  1.70000000E+00
  1.70000000E+00  1.30000000E+00  1.30000000E+00  1.30000000E+00  1.30000000E+00
  1.30000000E+00  1.30000000E+00  1.30000000E+00  1.30000000E+00  1.30000000E+00
  1.30000000E+00  1.30000000E+00  1.30000000E+00  1.30000000E+00  1.30000000E+00
  1.30000000E+00  1.30000000E+00  1.30000000E+00  1.30000000E+00  1.30000000E+00
  1.30000000E+00  1.30000000E+00  1.30000000E+00  1.30000000E+00  1.30000000E+00
  1.30000000E+00  1.30000000E+00  1.30000000E+00  1.30000000E+00  1.30000000E+00
  1.30000000E+00  1.30000000E+00  1.30000000E+00
%FLAG SCREEN                                                                    
%FORMAT(5E16.8)                                                                 
  7.20000000E-01  8.50000000E-01  7.20000000E-01  7.20000000E-01  7.90000000E-01
  7.20000000E-01  7.20000000E-01  7.20000000E-01  7.20000000E-01  8.50000000E-01
  7.90000000E-01  9.60000000E-01  8.50000000E-01  8.50000000E-01  7.20000000E-01
  7.20000000E-01  7.20000000E-01  7.20000000E-01  7.20000000E-01  7.20000000E-01
  7.20000000E-01  8.50000000E-01  7.20000000E-01  7.20000000E-01  7.20000000E-01
  7.20000000E-01  7.20000000E-01  7.20000000E-01  7.20000000E-01  8.50000000E-01
  7.20000000E-01  8.50000000E-01  7.20000000E-01  7.20000000E-01  7.20000000E-01
  7.20000000E-01  7.20000000E-01  8.50000000E-01  7.20000000E-01  7.20000000E-01
  7.20000000E-01  8.50000000E-01  8.50000000E-01  8.50000000E-01  8.50000000E-01
  8.50000000E-01  8.50000000E-01  8.50000000E-01  8.50000000E-01  8.50000000E-01
  8.50000000E-01  8.50000000E-01  8.50000000E-01  8.50000000E-01  8.50000000E-01
  8.50000000E-01  8.50000000E-01  8.50000000E-01  8.50000000E-01  8.50000000E-01
  8.50000000E-01  8.50000000E-01  8.50000000E-01  8.50000000E-01  8.50000000E-01
  8.50000000E-01  8.50000000E-01  8.50000000E-01  8.50000000E-01  8.50000000E-01
  8.50000000E-01  8.50000000E-01  8.50000000E-01
%FLAG IPOL                                                                      
%FORMAT(1I8)                                                                    
       0
