%VERSION  VERSION_STAMP = V0001.000  DATE = 07/11/26  14:39:58                  
%FLAG TITLE                                                                     
%FORMAT(20a4)                                                                   
MOL                                                                             
%FLAG POINTERS                                                                  
%FORMAT(10I8)                                                                   
      31      12      15      16      31      23      47      30       0       0
     158       1      16      23      30      15      27      12      13       0
       0       0       0       0       0       0       0       0      31       0
       0
%FLAG ATOM_NAME                                                                 
%FORMAT(20a4)                                                                   
C1  C2  S1  O1  O2  C3  C4  N1  C5  N2  O3  O4  C6  N3  C7  C8  H1  H2  H3  H4  
H5  H6  H7  H8  H9  H10 H11 H12 H13 H14 H15 
%FLAG CHARGE                                                                    
%FORMAT(5E16.8)                                                                 
 -1.27738323E+00 -5.89673628E+00  2.41809921E+01 -1.18226282E+01 -1.18226282E+01
 -6.42518298E+00  1.22636079E+00 -3.24174717E+00 -2.53289970E+00 -4.55557500E-01
 -8.01416754E+00 -8.01416754E+00  5.87122506E+00 -1.20084957E+01  7.59505464E+00
 -2.30329872E+00  9.54247184E-01  9.54247184E-01  9.54247184E-01  2.18120931E+00
  2.18120931E+00  2.27232081E+00  2.27232081E+00  1.63454031E+00  1.63454031E+00
  7.79003325E+00  7.79003325E+00  9.67604130E-01  1.12431591E+00  1.12431591E+00
  1.12431591E+00
%FLAG ATOMIC_NUMBER                                                             
%FORMAT(10I8)                                                                   
       6       6      16       8       8       6       6       7       6       7
       8       8       6       7       6       6       1       1       1       1
       1       1       1       1       1       1       1       1       1       1
       1
%FLAG MASS                                                                      
%FORMAT(5E16.8)                                                                 
  1.20100000E+01  1.20100000E+01  3.20600000E+01  1.60000000E+01  1.60000000E+01
  1.20100000E+01  1.20100000E+01  1.40100000E+01  1.20100000E+01  1.40100000E+01
  1.60000000E+01  1.60000000E+01  1.20100000E+01  1.40100000E+01  1.20100000E+01
  1.20100000E+01  1.00800000E+00  1.00800000E+00  1.00800000E+00  1.00800000E+00
  1.00800000E+00  1.00800000E+00  1.00800000E+00  1.00800000E+00  1.00800000E+00
  1.00800000E+00  1.00800000E+00  1.00800000E+00  1.00800000E+00  1.00800000E+00
  1.00800000E+00
%FLAG ATOM_TYPE_INDEX                                                           
%FORMAT(10I8)                                                                   
       1       1       2       3       3       1       1       4       5       6
       7       7       5       8       5       1       9       9       9      10
      10      10      10      10      10      11      11      12       9       9
       9
%FLAG NUMBER_EXCLUDED_ATOMS                                                     
%FORMAT(10I8)                                                                   
      10      12      14       7       6      10      11      16      12       8
       4       3       4       6       7       3       4       3       2       1
       1       3       2       1       1       1       1       1       2       1
       1
%FLAG NONBONDED_PARM_INDEX                                                      
%FORMAT(10I8)                                                                   
       1       2       4       7      11      16      22      29      37      46
      56      67       2       3       5       8      12      17      23      30
      38      47      57      68       4       5       6       9      13      18
      24      31      39      48      58      69       7       8       9      10
      14      19      25      32      40      49      59      70      11      12
      13      14      15      20      26      33      41      50      60      71
      16      17      18      19      20      21      27      34      42      51
      61      72      22      23      24      25      26      27      28      35
      43      52      62      73      29      30      31      32      33      34
      35      36      44      53      63      74      37      38      39      40
      41      42      43      44      45      54      64      75      46      47
      48      49      50      51      52      53      54      55      65      76
      56      57      58      59      60      61      62      63      64      65
      66      77      67      68      69      70      71      72      73      74
      75      76      77      78
%FLAG RESIDUE_LABEL                                                             
%FORMAT(20a4)                                                                   
MOL 
%FLAG RESIDUE_POINTER                                                           
%FORMAT(10I8)                                                                   
       1
%FLAG BOND_FORCE_CONSTANT                                                       
%FORMAT(5E16.8)                                                                 
  2.32500000E+02  3.75900000E+02  2.00100000E+02  3.75900000E+02  6.83000000E+02
  2.62900000E+02  3.54500000E+02  3.63500000E+02  4.16100000E+02  1.75300000E+02
  5.63500000E+02  3.69100000E+02  4.03900000E+02  4.50700000E+02  2.62600000E+02
%FLAG BOND_EQUIL_VALUE                                                          
%FORMAT(5E16.8)                                                                 
  1.53800000E+00  1.09700000E+00  1.80800000E+00  1.09700000E+00  1.45300000E+00
  1.46300000E+00  1.38000000E+00  1.37300000E+00  1.37300000E+00  1.41600000E+00
  9.73000000E-01  1.36900000E+00  1.08200000E+00  1.31700000E+00  1.50200000E+00
%FLAG ANGLE_FORCE_CONSTANT                                                      
%FORMAT(5E16.8)                                                                 
  6.40000000E+01  4.69000000E+01  4.68000000E+01  9.37000000E+01  7.07000000E+01
  4.36000000E+01  1.28200000E+02  8.27000000E+01  6.37000000E+01  6.15000000E+01
  1.10800000E+02  9.27000000E+01  1.15500000E+02  8.24000000E+01  7.05000000E+01
  8.58000000E+01  9.11000000E+01  4.78000000E+01  8.63000000E+01  6.30000000E+01
  1.09600000E+02  7.39000000E+01  6.17000000E+01  8.39000000E+01  4.77000000E+01
  3.90000000E+01  3.88000000E+01
%FLAG ANGLE_EQUIL_VALUE                                                         
%FORMAT(5E16.8)                                                                 
  1.92370273E+00  1.91218355E+00  1.91637234E+00  1.89560291E+00  1.81217614E+00
  1.87012110E+00  2.09526867E+00  1.97012850E+00  2.20714432E+00  1.89856997E+00
  2.04692302E+00  1.86732857E+00  1.95860933E+00  2.14204351E+00  1.91811767E+00
  1.97169930E+00  1.94866095E+00  2.24239998E+00  2.16141667E+00  1.79367564E+00
  1.85476219E+00  1.84114862E+00  2.11429276E+00  2.13645845E+00  1.92841512E+00
  1.87762601E+00  1.89298492E+00
%FLAG DIHEDRAL_FORCE_CONSTANT                                                   
%FORMAT(5E16.8)                                                                 
  1.44444444E-01  8.90000000E-02  1.55555556E-01  0.00000000E+00  1.70000000E+00
  1.05000000E+00  4.00000000E+00  4.75000000E+00  0.00000000E+00  0.00000000E+00
  1.50000000E+00  1.10000000E+00
%FLAG DIHEDRAL_PERIODICITY                                                      
%FORMAT(5E16.8)                                                                 
  3.00000000E+00  3.00000000E+00  3.00000000E+00  2.00000000E+00  2.00000000E+00
  2.00000000E+00  2.00000000E+00  2.00000000E+00  3.00000000E+00  2.00000000E+00
  2.00000000E+00  2.00000000E+00
%FLAG DIHEDRAL_PHASE                                                            
%FORMAT(5E16.8)                                                                 
  0.00000000E+00  0.00000000E+00  0.00000000E+00  0.00000000E+00  3.14159400E+00
  3.14159400E+00  3.14159400E+00  3.14159400E+00  0.00000000E+00  3.14159400E+00
  0.00000000E+00  3.14159400E+00
%FLAG SCEE_SCALE_FACTOR                                                         
%FORMAT(5E16.8)                                                                 
  1.20000000E+00  1.20000000E+00  1.20000000E+00  1.20000000E+00  1.20000000E+00
  1.20000000E+00  1.20000000E+00  1.20000000E+00  1.20000000E+00  1.20000000E+00
  1.20000000E+00  0.00000000E+00
%FLAG SCNB_SCALE_FACTOR                                                         
%FORMAT(5E16.8)                                                                 
  2.00000000E+00  2.00000000E+00  2.00000000E+00  2.00000000E+00  2.00000000E+00
  2.00000000E+00  2.00000000E+00  2.00000000E+00  2.00000000E+00  2.00000000E+00
  2.00000000E+00  0.00000000E+00
%FLAG SOLTY                                                                     
%FORMAT(5E16.8)                                                                 
  0.00000000E+00  0.00000000E+00  0.00000000E+00  0.00000000E+00  0.00000000E+00
  0.00000000E+00  0.00000000E+00  0.00000000E+00  0.00000000E+00  0.00000000E+00
  0.00000000E+00  0.00000000E+00  0.00000000E+00
%FLAG LENNARD_JONES_ACOEF                                                       
%FORMAT(5E16.8)                                                                 
  1.02073671E+06  2.09089895E+06  4.26366419E+06  6.30925504E+05  1.30884564E+06
  3.76435470E+05  9.96191545E+05  2.05449504E+06  6.04208667E+05  9.62429652E+05
  8.43969952E+05  1.73376823E+06  5.17507491E+05  8.20152428E+05  6.96551276E+05
  9.93125065E+05  2.04935397E+06  6.01376873E+05  9.58637891E+05  8.17329084E+05
  9.54790629E+05  7.18991463E+05  1.48082758E+06  4.37717034E+05  6.96017793E+05
  5.92438683E+05  6.93394194E+05  5.03152404E+05  9.31115275E+05  1.90820499E+06
  5.74782316E+05  9.08092643E+05  7.69642101E+05  9.05243612E+05  6.55497149E+05
  8.49322032E+05  1.00235148E+05  2.11783234E+05  5.68021765E+04  9.33839501E+04
  8.12662403E+04  9.27277603E+04  6.80216136E+04  9.11435380E+04  7.94617769E+03
  6.97998263E+04  1.48672098E+05  3.86646725E+04  6.42436358E+04  5.63013422E+04
  6.37258620E+04  4.69084694E+04  6.34160397E+04  5.22955465E+03  3.39005767E+03
  3.03553352E+02  7.35778500E+02  1.15813907E+02  2.29317644E+02  2.25372434E+02
  2.23617883E+02  1.74176419E+02  2.72118326E+02  8.80612241E+00  4.36660257E+00
  1.10360882E-05  7.75673747E+04  1.64354276E+05  4.36069364E+04  7.19580450E+04
  6.27751680E+04  7.14263282E+04  5.24591488E+04  7.05112106E+04  6.02863188E+03
  3.94664935E+03  6.05535196E+00  4.56536476E+03
%FLAG LENNARD_JONES_BCOEF                                                       
%FORMAT(5E16.8)                                                                 
  6.63431737E+02  1.20800124E+03  2.19459223E+03  5.62969425E+02  1.03157656E+03
  4.69350655E+02  7.68900328E+02  1.40479403E+03  6.46321327E+02  8.86629877E+02
  5.90251928E+02  1.07629402E+03  4.98871431E+02  6.82622272E+02  5.24668528E+02
  7.77671659E+02  1.42122969E+03  6.53166727E+02  8.96356641E+02  6.90283231E+02
  9.06156687E+02  5.36620538E+02  9.79758754E+02  4.51916854E+02  6.19405188E+02
  4.76608379E+02  6.26253907E+02  4.32634597E+02  6.12468585E+02  1.11546536E+03
  5.19385932E+02  7.09588248E+02  5.44830041E+02  7.17661669E+02  4.95260330E+02
  5.65406768E+02  1.37787728E+02  2.54804909E+02  1.11953944E+02  1.56025608E+02
  1.21392023E+02  1.57492664E+02  1.09393126E+02  1.27000718E+02  2.57122925E+01
  1.14981426E+02  2.13489607E+02  9.23664132E+01  1.29412081E+02  1.01040256E+02
  1.30560951E+02  9.08431526E+01  1.05935811E+02  2.08590256E+01  1.67944276E+01
  5.22789272E+00  1.03548588E+01  3.48534600E+00  5.33073545E+00  4.40751799E+00
  5.33233396E+00  3.81654050E+00  4.78443613E+00  5.90150328E-01  4.15568027E-01
  4.55498033E-04  1.13692208E+02  2.10544132E+02  9.20079458E+01  1.28466555E+02
  1.00073628E+02  1.29650812E+02  9.01089277E+01  1.04776275E+02  2.10068861E+01
  1.69967767E+01  4.59018960E-01  1.71467049E+01
%FLAG BONDS_INC_HYDROGEN                                                        
%FORMAT(10I8)                                                                   
       0      48       2       0      51       2       0      54       2       3
      57       4       3      60       4      15      63       4      15      66
       4      18      69       4      18      72       4      30      75      11
      33      78      11      36      81      13      45      84       2      45
      87       2      45      90       2
%FLAG BONDS_WITHOUT_HYDROGEN                                                    
%FORMAT(10I8)                                                                   
       0       3       1       3       6       3       6       9       5       6
      12       5       6      15       3      15      18       1      18      21
       6      21      24       7      21      42       7      24      27       8
      24      36       9      27      30      10      27      33      10      36
      39      12      39      42      14      42      45      15
%FLAG ANGLES_INC_HYDROGEN                                                       
%FORMAT(10I8)                                                                   
       0       3      57       2       0       3      60       2       3       0
      48       3       3       0      51       3       3       0      54       3
       6       3      57       6       6       3      60       6       6      15
      63       6       6      15      66       6      15      18      69       2
      15      18      72       2      18      15      63       2      18      15
      66       2      21      18      69      10      21      18      72      10
      24      36      81      18      27      30      75      20      27      33
      78      20      39      36      81      23      42      45      84      25
      42      45      87      25      42      45      90      25      48       0
      51      26      48       0      54      26      51       0      54      26
      57       3      60      27      63      15      66      27      69      18
      72      27      84      45      87      26      84      45      90      26
      87      45      90      26
%FLAG ANGLES_WITHOUT_HYDROGEN                                                   
%FORMAT(10I8)                                                                   
       0       3       6       1       3       6       9       4       3       6
      12       4       3       6      15       5       6      15      18       1
       9       6      12       7       9       6      15       4      12       6
      15       4      15      18      21       8      18      21      24       9
      18      21      42       9      21      24      27      11      21      24
      36      12      21      42      39      13      21      42      45      14
      24      21      42      15      24      27      30      16      24      27
      33      16      24      36      39      17      27      24      36      19
      30      27      33      21      36      39      42      22      39      42
      45      24
%FLAG DIHEDRALS_INC_HYDROGEN                                                    
%FORMAT(10I8)                                                                   
       3       6      15      63       2       3       6      15      66       2
      48       0       3       6       3      51       0       3       6       3
      54       0       3       6       3       6      15      18      69       3
       6      15      18      72       3       9       6       3      57       1
       9       6       3      60       1       9       6      15      63       1
       9       6      15      66       1      12       6       3      57       1
      12       6       3      60       1      12       6      15      63       1
      12       6      15      66       1      15       6       3      57       2
      15       6       3      60       2      21      18      15      63       3
      21      18      15      66       3      21      24      36      81       7
      21      42      45      84       9      21      42      45      87       9
      21      42      45      90       9      24      21      18      69      10
      24      21      18      72      10      24      27      30      75      11
      24      27      33      78      11      27      24      36      81       7
      30      27      33      78      11      33      27      30      75      11
      39      42      45      84       9      39      42      45      87       9
      39      42      45      90       9      42      39      36      81       8
      42      21      18      69      10      42      21      18      72      10
      48       0       3      57       3      48       0       3      60       3
      51       0       3      57       3      51       0       3      60       3
      54       0       3      57       3      54       0       3      60       3
      63      15      18      69       3      63      15      18      72       3
      66      15      18      69       3      66      15      18      72       3
      24      81     -36     -39      12
%FLAG DIHEDRALS_WITHOUT_HYDROGEN                                                
%FORMAT(10I8)                                                                   
       0       3       6       9       1       0       3       6      12       1
       0       3       6      15       1       3       6      15      18       1
       6      15      18      21       3       9       6      15      18       1
      12       6      15      18       1      15      18      21      24       4
      15      18      21      42       4      18      21      24      27       5
      18      21      24      36       5      18      21      42      39       5
      18      21      42      45       5      21      24      27      30       6
      21      24      27      33       6      21      24     -36      39       7
      21      42     -39      36       8      24      21     -42      39       5
      24      21      42      45       5      24      36     -39      42       8
      27      24      21      42       5      27      24      36      39       7
      30      27      24      36       6      33      27      24      36       6
      36      24     -21      42       5      36      39      42      45       8
      18      24     -21     -42      12      36      21     -24     -27      12
      24      30     -27     -33      12      45      21     -42     -39      12
%FLAG EXCLUDED_ATOMS_LIST                                                       
%FORMAT(10I8)                                                                   
       2       3       4       5       6      17      18      19      20      21
       3       4       5       6       7      17      18      19      20      21
      22      23       4       5       6       7       8      17      18      19
      20      21      22      23      24      25       5       6       7      20
      21      22      23       6       7      20      21      22      23       7
       8       9      15      20      21      22      23      24      25       8
       9      10      13      14      15      16      22      23      24      25
       9      10      11      12      13      14      15      16      22      23
      24      25      28      29      30      31      10      11      12      13
      14      15      16      24      25      26      27      28      11      12
      13      14      15      26      27      28      12      13      26      27
      13      26      27      14      15      16      28      15      16      28
      29      30      31      16      24      25      28      29      30      31
      29      30      31      18      19      20      21      19      20      21
      20      21      21       0      23      24      25      24      25      25
       0       0       0       0      30      31      31       0
%FLAG HBOND_ACOEF                                                               
%FORMAT(5E16.8)                                                                 

%FLAG HBOND_BCOEF                                                               
%FORMAT(5E16.8)                                                                 

%FLAG HBCUT                                                                     
%FORMAT(5E16.8)                                                                 

%FLAG AMBER_ATOM_TYPE                                                           
%FORMAT(20a4)                                                                   
c3  c3  s6  o   o   c3  c3  na  cc  nh  oh  oh  cd  nd  cc  c3  hc  hc  hc  h1  
h1  h1  h1  h1  h1  ho  ho  h4  hc  hc  hc  
%FLAG TREE_CHAIN_CLASSIFICATION                                                 
%FORMAT(20a4)                                                                   
BLA BLA BLA BLA BLA BLA BLA BLA BLA BLA BLA BLA BLA BLA BLA BLA BLA BLA BLA BLA 
BLA BLA BLA BLA BLA BLA BLA BLA BLA BLA BLA 
%FLAG JOIN_ARRAY                                                                
%FORMAT(10I8)                                                                   
       0       0       0       0       0       0       0       0       0       0
       0       0       0       0       0       0       0       0       0       0
       0       0       0       0       0       0       0       0       0       0
       0
%FLAG IROTAT                                                                    
%FORMAT(10I8)                                                                   
       0       0       0       0       0       0       0       0       0       0
       0       0       0       0       0       0       0       0       0       0
       0       0       0       0       0       0       0       0       0       0
       0
%FLAG RADIUS_SET                                                                
%FORMAT(1a80)                                                                   
modified Bondi radii (mbondi)                                                   
%FLAG RADII                                                                     
%FORMAT(5E16.8)                                                                 
  1.70000000E+00  1.70000000E+00  1.80000000E+00  1.50000000E+00  1.50000000E+00
  1.70000000E+00  1.70000000E+00  1.55000000E+00  1.70000000E+00  1.55000000E+00
  1.50000000E+00  1.50000000E+00  1.70000000E+00  1.55000000E+00  1.70000000E+00
  1.70000000E+00  1.30000000E+00  1.30000000E+00  1.30000000E+00  1.30000000E+00
  1.30000000E+00  1.30000000E+00  1.30000000E+00  1.30000000E+00  1.30000000E+00
  8.00000000E-01  8.00000000E-01  1.30000000E+00  1.30000000E+00  1.30000000E+00
  1.30000000E+00
%FLAG SCREEN                                                                    
%FORMAT(5E16.8)                                                                 
  7.20000000E-01  7.20000000E-01  9.60000000E-01  8.50000000E-01  8.50000000E-01
  7.20000000E-01  7.20000000E-01  7.90000000E-01  7.20000000E-01  7.90000000E-01
  8.50000000E-01  8.50000000E-01  7.20000000E-01  7.90000000E-01  7.20000000E-01
  7.20000000E-01  8.50000000E-01  8.50000000E-01  8.50000000E-01  8.50000000E-01
  8.50000000E-01  8.50000000E-01  8.50000000E-01  8.50000000E-01  8.50000000E-01
  8.50000000E-01  8.50000000E-01  8.50000000E-01  8.50000000E-01  8.50000000E-01
  8.50000000E-01
%FLAG IPOL                                                                      
%FORMAT(1I8)                                                                    
       0
