MOL
    31
  -0.8980000   3.1360000   0.1110000  -0.7830000   2.8640000  -1.3740000
  -1.4470000   1.2800000  -1.8610000  -1.2200000   1.1410000  -3.2870000
  -2.7860000   1.1570000  -1.3160000  -0.4190000   0.0930000  -1.0310000
  -0.7880000  -1.3080000  -1.4800000  -0.0400000  -2.3160000  -0.7470000
   1.2230000  -2.7960000  -1.0240000   2.0110000  -2.4070000  -2.0540000
   1.7270000  -1.3310000  -2.8590000   3.2130000  -3.0420000  -2.2950000
   1.4550000  -3.7280000  -0.0310000   0.3950000  -3.8280000   0.8250000
  -0.5020000  -2.9730000   0.3810000  -1.8320000  -2.7370000   1.0020000
  -0.3130000   2.4220000   0.6960000  -0.5270000   4.1400000   0.3400000
  -1.9380000   3.0750000   0.4470000  -1.3380000   3.6190000  -1.9390000
   0.2620000   2.8950000  -1.6990000   0.6220000   0.3380000  -1.2590000
  -0.5760000   0.2110000   0.0450000  -0.6280000  -1.4670000  -2.5500000
  -1.8550000  -1.4980000  -1.3200000   2.5930000  -1.1750000  -3.2770000
   2.9240000  -3.9190000  -2.6070000   2.3440000  -4.3270000   0.1110000
  -1.9180000  -3.2930000   1.9410000  -1.9780000  -1.6760000   1.2270000
  -2.6330000  -3.0740000   0.3370000
