MOL
    61
   1.5380000  -3.2410000   3.1600000   0.7220000  -3.1780000   1.8800000
   1.5860000  -2.7690000   0.6850000   0.7880000  -2.6870000  -0.5490000
   0.6600000  -3.9140000  -1.3320000   1.8490000  -4.0620000  -2.2160000
   2.2400000  -3.2280000  -3.3050000   3.3960000  -3.7670000  -3.8170000
   3.7450000  -4.8780000  -3.1230000   2.8080000  -5.0550000  -2.1590000
   0.0940000  -1.5610000  -0.9630000  -0.7000000  -1.5280000  -1.9100000
   0.2680000  -0.2870000  -0.2480000   1.4620000   0.4340000  -0.3450000
   1.5450000   1.7150000   0.2150000   2.8400000   2.4750000   0.1930000
   0.4110000   2.2690000   0.8310000  -0.7900000   1.5600000   0.8630000
  -1.9560000   2.0690000   1.3590000  -2.3700000   3.3000000   0.7420000
  -2.7710000   3.1020000  -0.7180000  -3.8400000   2.0410000  -0.9220000
  -3.9500000   1.6250000  -2.2950000  -3.0370000   0.5310000  -2.5600000
  -3.1090000  -0.1730000  -3.7090000  -4.0320000   0.1400000  -4.6210000
  -2.2710000  -1.1800000  -3.9420000  -2.8950000   4.3660000  -1.5550000
  -1.7500000   3.4310000  -1.8000000  -0.8510000   0.2610000   0.3750000
   0.9030000  -3.5420000   3.9990000   1.9740000  -2.2640000   3.3960000
   2.3520000  -3.9680000   3.0710000   0.2640000  -4.1560000   1.6950000
  -0.1010000  -2.4660000   2.0120000   2.3970000  -3.4900000   0.5340000
   2.0580000  -1.8070000   0.8930000  -0.2450000  -3.8830000  -1.9500000
   0.5570000  -4.7650000  -0.6490000   1.7410000  -2.3410000  -3.6660000
   4.0590000  -3.4960000  -4.6280000   2.9580000  -5.9170000  -1.5230000
   2.3200000   0.0010000  -0.8560000   3.3890000   2.3020000   1.1230000
   2.6570000   3.5480000   0.0800000   3.4660000   2.1620000  -0.6490000
   0.4740000   3.2590000   1.2780000  -1.6080000   4.0790000   0.8650000
  -3.2500000   3.6440000   1.2970000  -3.6800000   1.1590000  -0.2950000
  -4.8120000   2.4590000  -0.6380000  -2.2920000   0.2930000  -1.9080000
  -4.1270000  -0.3610000  -5.4920000  -4.6560000   0.9120000  -4.4230000
  -2.2940000  -1.7280000  -4.7880000  -1.5770000  -1.4380000  -3.2290000
  -2.6740000   5.3250000  -1.0960000  -3.6710000   4.4280000  -2.3110000
  -0.7620000   3.7710000  -1.5070000  -1.7430000   2.8860000  -2.7360000
  -1.7760000  -0.3020000   0.4440000
