%VERSION  VERSION_STAMP = V0001.000  DATE = 07/11/26  13:51:22                  
%FLAG TITLE                                                                     
%FORMAT(20a4)                                                                   
MOL                                                                             
%FLAG POINTERS                                                                  
%FORMAT(10I8)                                                                   
      61      12      31      32      67      44     112      60       0       0
     319       1      32      44      60      26      46      23      17       0
       0       0       0       0       0       0       0       0      61       0
       0
%FLAG ATOM_NAME                                                                 
%FORMAT(20a4)                                                                   
C1  C2  C3  N1  C4  C5  C6  C7  O1  C8  C9  O2  C10 C11 C12 C13 C14 C15 O3  C16 
C17 C18 O4  N2  C19 N3  N4  C20 C21 C22 H1  H2  H3  H4  H5  H6  H7  H8  H9  H10 
H11 H12 H13 H14 H15 H16 H17 H18 H19 H20 H21 H22 H23 H24 H25 H26 H27 H28 H29 H30 
H31 
%FLAG CHARGE                                                                    
%FORMAT(5E16.8)                                                                 
 -1.76938533E+00 -1.82951892E+00  1.42133940E+00 -7.70438844E+00  2.86636779E+00
 -4.76695368E+00 -4.70682009E+00  4.54828608E+00 -6.31949364E+00  4.83984288E+00
  1.26225872E+01 -1.33223235E+01 -2.30694318E+00 -2.25956520E+00 -7.70803290E-01
 -1.21724964E+00 -2.60578890E+00  2.02449753E+00 -6.08442597E+00  2.94107922E+00
 -3.53512620E+00  3.14152452E+00 -5.83113600E+00 -3.73921596E+00  8.75217069E+00
 -8.77768191E+00 -8.77768191E+00 -1.92063042E+00 -1.92063042E+00 -2.62401120E+00
  8.02382536E-01  8.02382536E-01  8.02382536E-01  9.14759460E-01  9.14759460E-01
  1.17898281E+00  1.17898281E+00  1.40676156E+00  1.40676156E+00  2.87912340E+00
  1.16804943E+00  1.11338253E+00  2.75156730E+00  1.06964901E+00  1.06964901E+00
  1.06964901E+00  2.82445650E+00  1.32476121E+00  1.32476121E+00  1.68920721E+00
  1.68920721E+00  5.77100241E+00  6.04433691E+00  6.04433691E+00  6.04433691E+00
  6.04433691E+00  1.45231731E+00  1.45231731E+00  1.45231731E+00  1.45231731E+00
  2.73334500E+00
%FLAG ATOMIC_NUMBER                                                             
%FORMAT(10I8)                                                                   
       6       6       6       7       6       6       6       6       8       6
       6       8       6       6       6       6       6       6       8       6
       6       6       8       7       6       7       7       6       6       6
       1       1       1       1       1       1       1       1       1       1
       1       1       1       1       1       1       1       1       1       1
       1       1       1       1       1       1       1       1       1       1
       1
%FLAG MASS                                                                      
%FORMAT(5E16.8)                                                                 
  1.20100000E+01  1.20100000E+01  1.20100000E+01  1.40100000E+01  1.20100000E+01
  1.20100000E+01  1.20100000E+01  1.20100000E+01  1.60000000E+01  1.20100000E+01
  1.20100000E+01  1.60000000E+01  1.20100000E+01  1.20100000E+01  1.20100000E+01
  1.20100000E+01  1.20100000E+01  1.20100000E+01  1.60000000E+01  1.20100000E+01
  1.20100000E+01  1.20100000E+01  1.60000000E+01  1.40100000E+01  1.20100000E+01
  1.40100000E+01  1.40100000E+01  1.20100000E+01  1.20100000E+01  1.20100000E+01
  1.00800000E+00  1.00800000E+00  1.00800000E+00  1.00800000E+00  1.00800000E+00
  1.00800000E+00  1.00800000E+00  1.00800000E+00  1.00800000E+00  1.00800000E+00
  1.00800000E+00  1.00800000E+00  1.00800000E+00  1.00800000E+00  1.00800000E+00
  1.00800000E+00  1.00800000E+00  1.00800000E+00  1.00800000E+00  1.00800000E+00
  1.00800000E+00  1.00800000E+00  1.00800000E+00  1.00800000E+00  1.00800000E+00
  1.00800000E+00  1.00800000E+00  1.00800000E+00  1.00800000E+00  1.00800000E+00
  1.00800000E+00
%FLAG ATOM_TYPE_INDEX                                                           
%FORMAT(10I8)                                                                   
       1       1       1       2       1       3       3       3       4       3
       3       5       3       3       3       1       3       3       4       1
       1       1       4       6       3       7       7       1       1       3
       8       8       8       8       8       9       9       9       9      10
      11      11      10       8       8       8      10       9       9       9
       9      12      12      12      12      12       8       8       8       8
      10
%FLAG NUMBER_EXCLUDED_ATOMS                                                     
%FORMAT(10I8)                                                                   
      10      11      15      15      14      10       8       5       4       5
      12       3       9      11      10       7      10       8      10      14
      13      14       9      10       7       6       5       9       8       3
       4       3       2       3       2       1       1       1       1       1
       1       1       1       2       1       1       1       1       1       1
       1       1       1       1       1       1       3       2       1       1
       1
%FLAG NONBONDED_PARM_INDEX                                                      
%FORMAT(10I8)                                                                   
       1       2       4       7      11      16      22      29      37      46
      56      67       2       3       5       8      12      17      23      30
      38      47      57      68       4       5       6       9      13      18
      24      31      39      48      58      69       7       8       9      10
      14      19      25      32      40      49      59      70      11      12
      13      14      15      20      26      33      41      50      60      71
      16      17      18      19      20      21      27      34      42      51
      61      72      22      23      24      25      26      27      28      35
      43      52      62      73      29      30      31      32      33      34
      35      36      44      53      63      74      37      38      39      40
      41      42      43      44      45      54      64      75      46      47
      48      49      50      51      52      53      54      55      65      76
      56      57      58      59      60      61      62      63      64      65
      66      77      67      68      69      70      71      72      73      74
      75      76      77      78
%FLAG RESIDUE_LABEL                                                             
%FORMAT(20a4)                                                                   
MOL 
%FLAG RESIDUE_POINTER                                                           
%FORMAT(10I8)                                                                   
       1
%FLAG BOND_FORCE_CONSTANT                                                       
%FORMAT(5E16.8)                                                                 
  2.32500000E+02  3.75900000E+02  2.63800000E+02  3.75900000E+02  3.56200000E+02
  2.62600000E+02  3.40200000E+02  4.16100000E+02  4.00100000E+02  3.67900000E+02
  4.03900000E+02  6.52600000E+02  2.72700000E+02  3.78600000E+02  3.95700000E+02
  2.50300000E+02  3.57500000E+02  2.84800000E+02  2.44900000E+02  2.56900000E+02
  1.75900000E+02  4.14200000E+02  5.29500000E+02  4.14200000E+02  5.29500000E+02
  3.93900000E+02
%FLAG BOND_EQUIL_VALUE                                                          
%FORMAT(5E16.8)                                                                 
  1.53800000E+00  1.09700000E+00  1.46200000E+00  1.09700000E+00  1.37900000E+00
  1.50200000E+00  1.42800000E+00  1.37300000E+00  1.08400000E+00  1.36200000E+00
  1.08200000E+00  1.21800000E+00  1.49100000E+00  1.39800000E+00  1.08600000E+00
  1.51600000E+00  1.37000000E+00  1.43200000E+00  1.52200000E+00  1.50800000E+00
  1.41500000E+00  1.33900000E+00  1.01200000E+00  1.33900000E+00  1.01200000E+00
  1.08700000E+00
%FLAG ANGLE_FORCE_CONSTANT                                                      
%FORMAT(5E16.8)                                                                 
  6.49000000E+01  4.68000000E+01  8.32000000E+01  4.69000000E+01  6.49000000E+01
  6.53000000E+01  6.15000000E+01  8.42000000E+01  1.13800000E+02  8.54000000E+01
  6.67000000E+01  6.68000000E+01  4.79000000E+01  7.03000000E+01  4.76000000E+01
  8.80000000E+01  4.78000000E+01  4.90000000E+01  7.15000000E+01  6.36000000E+01
  6.64000000E+01  8.62000000E+01  6.88000000E+01  4.87000000E+01  6.56000000E+01
  4.73000000E+01  8.73000000E+01  6.61000000E+01  8.59000000E+01  6.24000000E+01
  6.48000000E+01  6.34000000E+01  4.73000000E+01  9.02000000E+01  4.61000000E+01
  8.45000000E+01  8.57000000E+01  6.27000000E+01  1.12600000E+02  4.92000000E+01
  4.92000000E+01  1.12600000E+02  3.90000000E+01  3.88000000E+01  3.95000000E+01
  3.81000000E+01
%FLAG ANGLE_EQUIL_VALUE                                                         
%FORMAT(5E16.8)                                                                 
  1.94621748E+00  1.91637234E+00  1.94796281E+00  1.91218355E+00  2.01829961E+00
  2.10643878E+00  1.90031530E+00  1.95058081E+00  2.14762857E+00  2.01149283E+00
  2.02405920E+00  2.08479669E+00  1.91357981E+00  1.99299233E+00  2.11307103E+00
  2.09963199E+00  2.24239998E+00  2.12511381E+00  1.86261618E+00  2.00538417E+00
  2.10015559E+00  2.13977458E+00  2.09474507E+00  2.09230160E+00  2.10783504E+00
  1.92806605E+00  2.08043336E+00  2.05879127E+00  1.88146574E+00  1.91602327E+00
  1.99264326E+00  2.09631586E+00  1.91445248E+00  1.04719800E+00  2.05407888E+00
  1.91619781E+00  1.97135024E+00  1.85127153E+00  2.09683946E+00  2.11446730E+00
  2.11446730E+00  2.09683946E+00  1.87762601E+00  1.89298492E+00  2.00922390E+00
  1.99718112E+00
%FLAG DIHEDRAL_FORCE_CONSTANT                                                   
%FORMAT(5E16.8)                                                                 
  1.00000000E-01  1.55555556E-01  0.00000000E+00  1.02000000E+00  1.70000000E-01
  1.00000000E-01  8.00000000E-02  2.50000000E+00  0.00000000E+00  1.00000000E+00
  4.00000000E+00  1.05000000E+00  0.00000000E+00  3.62500000E+00  5.22500000E-01
  1.61000000E+00  3.83333333E-01  2.10000000E-01  1.50000000E+00  6.75000000E-01
  1.20000000E-01  1.10000000E+00  1.05000000E+01
%FLAG DIHEDRAL_PERIODICITY                                                      
%FORMAT(5E16.8)                                                                 
  3.00000000E+00  3.00000000E+00  2.00000000E+00  1.00000000E+00  3.00000000E+00
  4.00000000E+00  3.00000000E+00  2.00000000E+00  3.00000000E+00  2.00000000E+00
  2.00000000E+00  2.00000000E+00  2.00000000E+00  2.00000000E+00  2.00000000E+00
  2.00000000E+00  3.00000000E+00  3.00000000E+00  1.00000000E+00  2.00000000E+00
  3.00000000E+00  2.00000000E+00  2.00000000E+00
%FLAG DIHEDRAL_PHASE                                                            
%FORMAT(5E16.8)                                                                 
  0.00000000E+00  0.00000000E+00  0.00000000E+00  3.14159400E+00  0.00000000E+00
  3.14159400E+00  0.00000000E+00  3.14159400E+00  0.00000000E+00  3.14159400E+00
  3.14159400E+00  3.14159400E+00  3.14159400E+00  3.14159400E+00  3.14159400E+00
  3.14159400E+00  0.00000000E+00  0.00000000E+00  0.00000000E+00  3.14159400E+00
  0.00000000E+00  3.14159400E+00  3.14159400E+00
%FLAG SCEE_SCALE_FACTOR                                                         
%FORMAT(5E16.8)                                                                 
  1.20000000E+00  1.20000000E+00  1.20000000E+00  1.20000000E+00  1.20000000E+00
  1.20000000E+00  1.20000000E+00  1.20000000E+00  1.20000000E+00  1.20000000E+00
  1.20000000E+00  1.20000000E+00  1.20000000E+00  1.20000000E+00  1.20000000E+00
  1.20000000E+00  1.20000000E+00  1.20000000E+00  1.20000000E+00  1.20000000E+00
  1.20000000E+00  0.00000000E+00  0.00000000E+00
%FLAG SCNB_SCALE_FACTOR                                                         
%FORMAT(5E16.8)                                                                 
  2.00000000E+00  2.00000000E+00  2.00000000E+00  2.00000000E+00  2.00000000E+00
  2.00000000E+00  2.00000000E+00  2.00000000E+00  2.00000000E+00  2.00000000E+00
  2.00000000E+00  2.00000000E+00  2.00000000E+00  2.00000000E+00  2.00000000E+00
  2.00000000E+00  2.00000000E+00  2.00000000E+00  2.00000000E+00  2.00000000E+00
  2.00000000E+00  0.00000000E+00  0.00000000E+00
%FLAG SOLTY                                                                     
%FORMAT(5E16.8)                                                                 
  0.00000000E+00  0.00000000E+00  0.00000000E+00  0.00000000E+00  0.00000000E+00
  0.00000000E+00  0.00000000E+00  0.00000000E+00  0.00000000E+00  0.00000000E+00
  0.00000000E+00  0.00000000E+00  0.00000000E+00  0.00000000E+00  0.00000000E+00
  0.00000000E+00  0.00000000E+00
%FLAG LENNARD_JONES_ACOEF                                                       
%FORMAT(5E16.8)                                                                 
  1.02073671E+06  8.52084164E+05  7.02078680E+05  8.43969952E+05  7.01106848E+05
  6.96551276E+05  5.42502534E+05  4.46307018E+05  4.46121722E+05  2.83662575E+05
  6.30925504E+05  5.15491878E+05  5.17507491E+05  3.27367585E+05  3.76435470E+05
  9.89136215E+05  8.19918726E+05  8.15700858E+05  5.21588833E+05  6.04358274E+05
  9.54886922E+05  9.87370297E+05  8.22806637E+05  8.15855629E+05  5.23754919E+05
  6.08567325E+05  9.55911054E+05  9.54875571E+05  1.00235148E+05  7.93773615E+04
  8.12662403E+04  5.02224902E+04  5.68021765E+04  9.44129241E+04  9.62844277E+04
  7.94617769E+03  6.97998263E+04  5.45183252E+04  5.63013422E+04  3.44374471E+04
  3.86646725E+04  6.52595638E+04  6.69267216E+04  5.22955465E+03  3.39005767E+03
  9.27554496E+04  7.35931098E+04  7.52549148E+04  4.65732396E+04  5.27277400E+04
  8.74566229E+04  8.91217989E+04  7.41026906E+03  4.88692384E+03  6.90855956E+03
  7.75673747E+04  6.11299385E+04  6.27751680E+04  3.86549715E+04  4.36069364E+04
  7.28718235E+04  7.44624759E+04  6.02863188E+03  3.94664935E+03  5.62610481E+03
  4.56536476E+03  2.23577481E+03  1.52360475E+03  1.71458823E+03  9.46795083E+02
  9.87857350E+02  1.94284817E+03  2.10567903E+03  9.47421632E+01  5.24570081E+01
  9.04434904E+01  6.76796831E+01  1.34728399E-01
%FLAG LENNARD_JONES_BCOEF                                                       
%FORMAT(5E16.8)                                                                 
  6.63431737E+02  6.72777963E+02  6.77820248E+02  5.90251928E+02  5.97113873E+02
  5.24668528E+02  4.38146883E+02  4.41089616E+02  3.88758656E+02  2.87011518E+02
  5.62969425E+02  5.64804067E+02  4.98871431E+02  3.67361018E+02  4.69350655E+02
  7.14570130E+02  7.22093348E+02  6.34916791E+02  4.70067704E+02  6.02865504E+02
  7.68192761E+02  6.58763033E+02  6.67466109E+02  5.85909304E+02  4.34643024E+02
  5.58212938E+02  7.09210839E+02  6.54052181E+02  1.37787728E+02  1.36094315E+02
  1.21392023E+02  8.83545880E+01  1.11953944E+02  1.46316625E+02  1.36341592E+02
  2.57122925E+01  1.14981426E+02  1.12788003E+02  1.01040256E+02  7.31636661E+01
  9.23664132E+01  1.21646616E+02  1.13671113E+02  2.08590256E+01  1.67944276E+01
  1.24325688E+02  1.22913863E+02  1.09570372E+02  7.98066064E+01  1.01173582E+02
  1.32088478E+02  1.23036209E+02  2.32899892E+01  1.89134207E+01  2.10929191E+01
  1.13692208E+02  1.12023534E+02  1.00073628E+02  7.27065100E+01  9.20079458E+01
  1.20572538E+02  1.12463011E+02  2.10068861E+01  1.69967767E+01  1.90347353E+01
  1.71467049E+01  1.71355763E+01  1.57004457E+01  1.46824710E+01  1.01016461E+01
  1.22938581E+01  1.74775900E+01  1.67892226E+01  2.33785449E+00  1.73959275E+00
  2.14252117E+00  1.85338491E+00  7.34107347E-02
%FLAG BONDS_INC_HYDROGEN                                                        
%FORMAT(10I8)                                                                   
       0      90       2       0      93       2       0      96       2       3
      99       2       3     102       2       6     105       4       6     108
       4      12     111       4      12     114       4      18     117       9
      21     120      11      27     123      11      39     126      15      45
     129       2      45     132       2      45     135       2      48     138
      15      57     141       4      57     144       4      63     147       4
      63     150       4      69     153      23      75     156      25      75
     159      25      78     162      25      78     165      25      81     168
      26      81     171      26      84     174      26      84     177      26
      87     180      15
%FLAG BONDS_WITHOUT_HYDROGEN                                                    
%FORMAT(10I8)                                                                   
       0       3       1       3       6       1       6       9       3       9
      12       3       9      30       5      12      15       6      15      18
       7      15      27       8      18      21       8      21      24      10
      24      27      10      30      33      12      30      36      13      36
      39      14      36      87      14      39      42      14      42      45
      16      42      48      14      48      51      14      51      54      17
      51      87      14      54      57      18      57      60      19      60
      63      19      60      81      20      60      84      20      63      66
      18      66      69      21      69      72      22      72      75      24
      72      78      24      81      84      20
%FLAG ANGLES_INC_HYDROGEN                                                       
%FORMAT(10I8)                                                                   
       0       3      99       2       0       3     102       2       3       0
      90       2       3       0      93       2       3       0      96       2
       3       6     105       4       3       6     108       4       6       3
      99       2       6       3     102       2       9       6     105       7
       9       6     108       7       9      12     111       7       9      12
     114       7      15      12     111      13      15      12     114      13
      15      18     117      15      15      27     123      17      18      21
     120      17      21      18     117      18      24      21     120      20
      24      27     123      20      36      39     126      24      36      87
     180      24      42      39     126      24      42      45     129      26
      42      45     132      26      42      45     135      26      42      48
     138      24      51      48     138      24      51      87     180      24
      54      57     141      30      54      57     144      30      60      57
     141      33      60      57     144      33      60      63     147      33
      60      63     150      33      60      81     168      35      60      81
     171      35      60      84     174      35      60      84     177      35
      66      63     147      30      66      63     150      30      66      69
     153      38      72      69     153      40      72      75     156      41
      72      75     159      41      72      78     162      41      72      78
     165      41      81      84     174      35      81      84     177      35
      84      81     168      35      84      81     171      35      90       0
      93      43      90       0      96      43      93       0      96      43
      99       3     102      43     105       6     108      44     111      12
     114      44     129      45     132      43     129      45     135      43
     132      45     135      43     141      57     144      44     147      63
     150      44     156      75     159      45     162      78     165      45
     168      81     171      46     174      84     177      46
%FLAG ANGLES_WITHOUT_HYDROGEN                                                   
%FORMAT(10I8)                                                                   
       0       3       6       1       3       6       9       3       6       9
      12       5       6       9      30       6       9      12      15       8
       9      30      33       9       9      30      36      10      12       9
      30       6      12      15      18      11      12      15      27      12
      15      18      21      14      15      27      24      16      18      15
      27      14      18      21      24      16      21      24      27      19
      30      36      39      21      30      36      87      21      33      30
      36      22      36      39      42      23      36      87      51      23
      39      36      87      23      39      42      45      25      39      42
      48      23      42      48      51      23      45      42      48      25
      48      51      54      27      48      51      87      23      51      54
      57      28      54      51      87      27      54      57      60      29
      57      60      63      31      57      60      81      32      57      60
      84      32      60      63      66      29      60      81      84      34
      60      84      81      34      63      60      81      32      63      60
      84      32      63      66      69      36      66      69      72      37
      69      72      75      39      69      72      78      39      75      72
      78      42      81      60      84      34
%FLAG DIHEDRALS_INC_HYDROGEN                                                    
%FORMAT(10I8)                                                                   
       0       3       6     105       2       0       3       6     108       2
      90       0       3       6       7      93       0       3       6       7
      96       0       3       6       7       6       9      12     111       3
       6       9      12     114       3       9       6       3      99       2
       9       6       3     102       2      12       9       6     105       3
      12       9       6     108       3      12      15      18     117      11
      12      15      27     123      11      15      18      21     120      11
      18      15      12     111       9      18      15      12     114       9
      18      15      27     123      11      21      24      27     123      12
      24      21      18     117      11      27      24      21     120      12
      27      15      12     111       9      27      15      12     114       9
      27      15      18     117      11      30       9       6     105      13
      30       9       6     108      13      30       9      12     111      13
      30       9      12     114      13      30      36      39     126      14
      30      36      87     180      14      39      36      87     180      14
      39      42      45     129      13      39      42      45     132      13
      39      42      45     135      13      39      42      48     138      14
      45      42      39     126      14      45      42      48     138      14
      48      42      39     126      14      48      42      45     129      13
      48      42      45     132      13      48      42      45     135      13
      48      51      87     180      14      51      54      57     141      17
      51      54      57     144      17      54      51      48     138      14
      54      51      87     180      14      57      60      63     147       7
      57      60      63     150       7      57      60      81     168       2
      57      60      81     171       2      57      60      84     174       2
      57      60      84     177       2      60      81     -84     174       2
      60      81     -84     177       2      60      84     -81     168       2
      60      84     -81     171       2      63      60      57     141       7
      63      60      57     144       7      63      60      81     168       2
      63      60      81     171       2      63      60      84     174       2
      63      60      84     177       2      63      66      69     153      19
      69      66      63     147      17      69      66      63     150      17
      69      72      75     156      20      69      72      75     159      20
      69      72      78     162      20      69      72      78     165      20
      75      72      69     153      20      75      72      78     162      20
      75      72      78     165      20      78      72      69     153      20
      78      72      75     156      20      78      72      75     159      20
      81      60      57     141       7      81      60      57     144       7
      81      60      63     147       7      81      60      63     150       7
      81      60     -84     174       2      81      60     -84     177       2
      84      60      57     141       7      84      60      57     144       7
      84      60      63     147       7      84      60      63     150       7
      84      60     -81     168       2      84      60     -81     171       2
      87      51      48     138      14      87      36      39     126      14
      90       0       3      99      21      90       0       3     102      21
      93       0       3      99      21      93       0       3     102      21
      96       0       3      99      21      96       0       3     102      21
      99       3       6     105       2      99       3       6     108       2
     102       3       6     105       2     102       3       6     108       2
     117      18      21     120      11     168      81      84     174       2
     168      81      84     177       2     171      81      84     174       2
     171      81      84     177       2      15      21     -18    -117      22
      18     120     -21     -24      22      15     123     -27     -24      22
      36      42     -39    -126      22      42      51     -48    -138      22
      72     153     -69     -66      22      72     156     -75    -159      22
      72     162     -78    -165      22      36      51     -87    -180      22
%FLAG DIHEDRALS_WITHOUT_HYDROGEN                                                
%FORMAT(10I8)                                                                   
       0       3       6       9       1       3       6       9      12       3
       3       6       9      30       4       3       6      -9      30       5
       3       6      -9      30       6       6       9      12      15       3
       6       9      30      33       8       6       9      30      36       8
       9      12      15      18       9       9      12      15      27       9
       9      30      36      39      10       9      30      36      87      10
      12       9      30      33       8      12       9      30      36       8
      12      15      18      21      11      12      15      27      24      11
      15      12       9      30       3      15      18     -21      24      11
      15      27     -24      21      12      18      15     -27      24      11
      18      21     -24      27      12      21      18     -15      27      11
      30      36      39      42      14      30      36      87      51      14
      33      30      36      39      15      33      30      36      87      15
      36      39      42      45      14      36      39      42      48      14
      36      87     -51      48      14      36      87      51      54      14
      39      36      87      51      14      39      42     -48      51      14
      42      39      36      87      14      42      48      51      54      14
      42      48     -51      87      14      45      42      48      51      14
      48      51      54      57      16      51      54      57      60      17
      54      57      60      63      18      54      57      60      81      18
      54      57      60      84      18      57      54      51      87      16
      57      60      63      66      18      57      60     -81      84       2
      57      60     -84      81       2      60      63      66      69      17
      63      60     -81      84       2      63      60     -84      81       2
      63      66      69      72      19      66      63      60      81      18
      66      63      60      84      18      66      69      72      75      20
      66      69      72      78      20      30       6      -9     -12      22
      12      18     -15     -27      22      36       9     -30     -33      23
      30      39     -36     -87      22      39      48     -42     -45      22
      48      87     -51     -54      22      69      75     -72     -78      22
%FLAG EXCLUDED_ATOMS_LIST                                                       
%FORMAT(10I8)                                                                   
       2       3       4      31      32      33      34      35      36      37
       3       4       5      11      31      32      33      34      35      36
      37       4       5       6      11      12      13      31      32      33
      34      35      36      37      38      39       5       6       7      10
      11      12      13      14      30      34      35      36      37      38
      39       6       7       8       9      10      11      12      13      36
      37      38      39      40      42       7       8       9      10      11
      38      39      40      41      42       8       9      10      38      39
      40      41      42       9      10      40      41      42      10      40
      41      42      38      39      40      41      42      12      13      14
      15      18      30      36      37      38      39      43      61      13
      14      30      14      15      16      17      18      19      30      43
      61      15      16      17      18      30      43      44      45      46
      47      61      16      17      18      19      30      43      44      45
      46      47      17      18      43      44      45      46      47      18
      19      20      30      43      44      45      46      47      61      19
      20      21      30      47      48      49      61      20      21      22
      28      29      30      47      48      49      61      21      22      23
      28      29      30      48      49      50      51      57      58      59
      60      22      23      24      28      29      48      49      50      51
      57      58      59      60      23      24      25      28      29      48
      49      50      51      52      57      58      59      60      24      25
      26      27      28      29      50      51      52      25      26      27
      50      51      52      53      54      55      56      26      27      52
      53      54      55      56      27      52      53      54      55      56
      52      53      54      55      56      29      48      49      50      51
      57      58      59      60      48      49      50      51      57      58
      59      60      43      47      61      32      33      34      35      33
      34      35      34      35      35      36      37      36      37      37
       0      39       0      41       0       0       0      45      46      46
       0       0      49       0      51       0       0      54       0      56
       0      58      59      60      59      60      60       0       0
%FLAG HBOND_ACOEF                                                               
%FORMAT(5E16.8)                                                                 

%FLAG HBOND_BCOEF                                                               
%FORMAT(5E16.8)                                                                 

%FLAG HBCUT                                                                     
%FORMAT(5E16.8)                                                                 

%FLAG AMBER_ATOM_TYPE                                                           
%FORMAT(20a4)                                                                   
c3  c3  c3  n   c3  cc  cc  cd  os  cd  c   o   ca  ca  ca  c3  ca  ca  os  c3  
cx  c3  os  nu  cz  nv  nv  cx  cx  ca  hc  hc  hc  hc  hc  h1  h1  h1  h1  ha  
h4  h4  ha  hc  hc  hc  ha  h1  h1  h1  h1  hn  hn  hn  hn  hn  hc  hc  hc  hc  
ha  
%FLAG TREE_CHAIN_CLASSIFICATION                                                 
%FORMAT(20a4)                                                                   
BLA BLA BLA BLA BLA BLA BLA BLA BLA BLA BLA BLA BLA BLA BLA BLA BLA BLA BLA BLA 
BLA BLA BLA BLA BLA BLA BLA BLA BLA BLA BLA BLA BLA BLA BLA BLA BLA BLA BLA BLA 
BLA BLA BLA BLA BLA BLA BLA BLA BLA BLA BLA BLA BLA BLA BLA BLA BLA BLA BLA BLA 
BLA 
%FLAG JOIN_ARRAY                                                                
%FORMAT(10I8)                                                                   
       0       0       0       0       0       0       0       0       0       0
       0       0       0       0       0       0       0       0       0       0
       0       0       0       0       0       0       0       0       0       0
       0       0       0       0       0       0       0       0       0       0
       0       0       0       0       0       0       0       0       0       0
       0       0       0       0       0       0       0       0       0       0
       0
%FLAG IROTAT                                                                    
%FORMAT(10I8)                                                                   
       0       0       0       0       0       0       0       0       0       0
       0       0       0       0       0       0       0       0       0       0
       0       0       0       0       0       0       0       0       0       0
       0       0       0       0       0       0       0       0       0       0
       0       0       0       0       0       0       0       0       0       0
       0       0       0       0       0       0       0       0       0       0
       0
%FLAG RADIUS_SET                                                                
%FORMAT(1a80)                                                                   
modified Bondi radii (mbondi)                                                   
%FLAG RADII                                                                     
%FORMAT(5E16.8)                                                                 
  1.70000000E+00  1.70000000E+00  1.70000000E+00  1.55000000E+00  1.70000000E+00
  1.70000000E+00  1.70000000E+00  1.70000000E+00  1.50000000E+00  1.70000000E+00
  1.70000000E+00  1.50000000E+00  1.70000000E+00  1.70000000E+00  1.70000000E+00
  1.70000000E+00  1.70000000E+00  1.70000000E+00  1.50000000E+00  1.70000000E+00
  1.70000000E+00  1.70000000E+00  1.50000000E+00  1.55000000E+00  1.70000000E+00
  1.55000000E+00  1.55000000E+00  1.70000000E+00  1.70000000E+00  1.70000000E+00
  1.30000000E+00  1.30000000E+00  1.30000000E+00  1.30000000E+00  1.30000000E+00
  1.30000000E+00  1.30000000E+00  1.30000000E+00  1.30000000E+00  1.30000000E+00
  1.30000000E+00  1.30000000E+00  1.30000000E+00  1.30000000E+00  1.30000000E+00
  1.30000000E+00  1.30000000E+00  1.30000000E+00  1.30000000E+00  1.30000000E+00
  1.30000000E+00  1.30000000E+00  1.30000000E+00  1.30000000E+00  1.30000000E+00
  1.30000000E+00  1.30000000E+00  1.30000000E+00  1.30000000E+00  1.30000000E+00
  1.30000000E+00
%FLAG SCREEN                                                                    
%FORMAT(5E16.8)                                                                 
  7.20000000E-01  7.20000000E-01  7.20000000E-01  7.90000000E-01  7.20000000E-01
  7.20000000E-01  7.20000000E-01  7.20000000E-01  8.50000000E-01  7.20000000E-01
  7.20000000E-01  8.50000000E-01  7.20000000E-01  7.20000000E-01  7.20000000E-01
  7.20000000E-01  7.20000000E-01  7.20000000E-01  8.50000000E-01  7.20000000E-01
  7.20000000E-01  7.20000000E-01  8.50000000E-01  7.90000000E-01  7.20000000E-01
  7.90000000E-01  7.90000000E-01  7.20000000E-01  7.20000000E-01  7.20000000E-01
  8.50000000E-01  8.50000000E-01  8.50000000E-01  8.50000000E-01  8.50000000E-01
  8.50000000E-01  8.50000000E-01  8.50000000E-01  8.50000000E-01  8.50000000E-01
  8.50000000E-01  8.50000000E-01  8.50000000E-01  8.50000000E-01  8.50000000E-01
  8.50000000E-01  8.50000000E-01  8.50000000E-01  8.50000000E-01  8.50000000E-01
  8.50000000E-01  8.50000000E-01  8.50000000E-01  8.50000000E-01  8.50000000E-01
  8.50000000E-01  8.50000000E-01  8.50000000E-01  8.50000000E-01  8.50000000E-01
  8.50000000E-01
%FLAG IPOL                                                                      
%FORMAT(1I8)                                                                    
       0
