MOL
    62
  -5.1810000   1.2340000   7.3790000  -4.6510000   1.9090000   6.1490000
  -4.2410000   1.1530000   5.0610000  -3.7510000   1.8030000   3.9210000
  -3.3190000   0.9660000   2.7390000  -1.8950000   0.9780000   2.6750000
  -1.3100000   0.3520000   1.6110000  -1.9670000  -0.3920000   0.6300000
  -1.2380000  -0.9800000  -0.4090000   0.1530000  -0.8400000  -0.4690000
   0.8800000  -1.4800000  -1.5960000   0.3290000  -1.6320000  -2.6820000
   2.1810000  -1.8700000  -1.3560000   2.9600000  -2.6100000  -2.3330000
   4.3800000  -2.8860000  -1.8510000   5.0510000  -3.4210000  -3.1080000
   4.4440000  -2.6310000  -4.2730000   3.1740000  -1.9610000  -3.7130000
   3.3560000  -0.4550000  -3.6180000   4.4290000   0.0970000  -3.3790000
   2.2030000   0.2650000  -3.8020000   2.3030000   1.6680000  -3.7010000
   6.4680000  -3.2630000  -3.0530000   6.9790000  -4.5840000  -2.8880000
   5.9620000  -5.4380000  -3.5920000   4.7230000  -4.8140000  -3.2520000
   0.8120000  -0.0830000   0.5050000   0.0780000   0.5020000   1.5420000
  -3.6670000   3.2180000   3.9220000  -3.1630000   3.9840000   2.8420000
  -3.1130000   5.3760000   2.9020000  -3.5630000   6.0270000   4.0410000
  -4.0560000   5.2810000   5.1130000  -4.1150000   3.8940000   5.0790000
  -4.5980000   3.2570000   6.1580000  -6.0710000   0.6460000   7.1340000
  -5.4580000   1.9720000   8.1390000  -4.4190000   0.5750000   7.8060000
  -4.3010000   0.0690000   5.1020000  -3.7660000   1.3750000   1.8240000
  -3.6750000  -0.0650000   2.8620000  -3.0430000  -0.5360000   0.6400000
  -1.7600000  -1.5540000  -1.1730000   2.5420000  -1.8080000  -0.4120000
   2.4360000  -3.5650000  -2.4790000   4.8710000  -1.9740000  -1.4910000
   4.3880000  -3.6120000  -1.0300000   5.1540000  -1.9060000  -4.6850000
   4.1660000  -3.3070000  -5.0910000   2.3250000  -2.1650000  -4.3760000
   1.2720000  -0.1520000  -3.8410000   3.2590000   1.7930000  -3.5150000
   7.9840000  -4.6670000  -3.3110000   7.0170000  -4.8030000  -1.8160000
   5.9710000  -6.4820000  -3.2690000   6.0780000  -5.3920000  -4.6800000
   1.8830000   0.0900000   0.4610000   0.5910000   1.0940000   2.2970000
  -2.7900000   3.5000000   1.9420000  -2.7200000   5.9450000   2.0640000
  -3.5300000   7.1120000   4.1040000  -4.4040000   5.7970000   6.0050000
