%VERSION  VERSION_STAMP = V0001.000  DATE = 07/10/26  10:48:28                  
%FLAG TITLE                                                                     
%FORMAT(20a4)                                                                   
MOL                                                                             
%FLAG POINTERS                                                                  
%FORMAT(10I8)                                                                   
      62      12      27      39      60      56     124     121       0       0
     346       1      39      56     121      17      36      41      13       0
       0       0       0       0       0       0       0       0      62       0
       0
%FLAG ATOM_NAME                                                                 
%FORMAT(20a4)                                                                   
C1  C2  C3  C4  C5  O1  C6  C7  C8  C9  C10 O2  N1  C11 C12 C13 C14 C15 C16 O3  
N2  O4  O5  C17 C18 O6  C19 C20 C21 C22 C23 C24 C25 C26 N3  H1  H2  H3  H4  H5  
H6  H7  H8  H9  H10 H11 H12 H13 H14 H15 H16 H17 H18 H19 H20 H21 H22 H23 H24 H25 
H26 H27 
%FLAG CHARGE                                                                    
%FORMAT(5E16.8)                                                                 
 -2.79530082E+00  7.77363318E+00 -4.23304029E+00 -7.52580990E-01  3.05587971E+00
 -5.79286917E+00  2.71694493E+00 -3.49868160E+00 -9.20226150E-01 -3.29094738E+00
  1.24403642E+01 -1.15000935E+01 -1.04395557E+01  1.98076401E+00 -1.99351962E+00
  6.24295998E+00 -1.88418582E+00 -2.87365671E+00  1.10445360E+01 -1.04432001E+01
 -6.58553922E+00 -7.83741123E+00 -7.97407848E+00  1.94796387E+00  1.94796387E+00
 -7.97407848E+00 -9.20226150E-01 -3.49868160E+00 -2.37436569E+00 -1.94978610E+00
 -2.29600980E+00 -2.22312060E+00 -3.04859079E+00  7.28163108E+00 -1.19173842E+01
  1.02105014E+00  1.02105014E+00  1.02105014E+00  2.60578890E+00  9.60315210E-01
  9.60315210E-01  2.74245615E+00  2.76067845E+00  6.00424785E+00  1.72565181E+00
  1.47053961E+00  1.47053961E+00  1.54342881E+00  1.54342881E+00  1.65276261E+00
  5.98602555E+00  7.78092210E+00  1.11976034E+00  1.11976034E+00  1.11976034E+00
  1.11976034E+00  2.76067845E+00  2.74245615E+00  2.60578890E+00  2.49645510E+00
  2.47823280E+00  2.75156730E+00
%FLAG ATOMIC_NUMBER                                                             
%FORMAT(10I8)                                                                   
       6       6       6       6       6       8       6       6       6       6
       6       8       7       6       6       6       6       6       6       8
       7       8       8       6       6       8       6       6       6       6
       6       6       6       6       7       1       1       1       1       1
       1       1       1       1       1       1       1       1       1       1
       1       1       1       1       1       1       1       1       1       1
       1       1
%FLAG MASS                                                                      
%FORMAT(5E16.8)                                                                 
  1.20100000E+01  1.20100000E+01  1.20100000E+01  1.20100000E+01  1.20100000E+01
  1.60000000E+01  1.20100000E+01  1.20100000E+01  1.20100000E+01  1.20100000E+01
  1.20100000E+01  1.60000000E+01  1.40100000E+01  1.20100000E+01  1.20100000E+01
  1.20100000E+01  1.20100000E+01  1.20100000E+01  1.20100000E+01  1.60000000E+01
  1.40100000E+01  1.60000000E+01  1.60000000E+01  1.20100000E+01  1.20100000E+01
  1.60000000E+01  1.20100000E+01  1.20100000E+01  1.20100000E+01  1.20100000E+01
  1.20100000E+01  1.20100000E+01  1.20100000E+01  1.20100000E+01  1.40100000E+01
  1.00800000E+00  1.00800000E+00  1.00800000E+00  1.00800000E+00  1.00800000E+00
  1.00800000E+00  1.00800000E+00  1.00800000E+00  1.00800000E+00  1.00800000E+00
  1.00800000E+00  1.00800000E+00  1.00800000E+00  1.00800000E+00  1.00800000E+00
  1.00800000E+00  1.00800000E+00  1.00800000E+00  1.00800000E+00  1.00800000E+00
  1.00800000E+00  1.00800000E+00  1.00800000E+00  1.00800000E+00  1.00800000E+00
  1.00800000E+00  1.00800000E+00
%FLAG ATOM_TYPE_INDEX                                                           
%FORMAT(10I8)                                                                   
       1       2       2       2       1       3       2       2       2       2
       2       4       5       1       1       1       1       1       2       4
       5       6       3       1       1       3       2       2       2       2
       2       2       2       2       7       8       8       8       9      10
      10       9       9      11      10       8       8       8       8       8
      11      12      10      10      10      10       9       9       9       9
       9       9
%FLAG NUMBER_EXCLUDED_ATOMS                                                     
%FORMAT(10I8)                                                                   
       9      11      13      13      10      10      11       8       9      11
      11       4      12      16      15      17      14      14       9       4
       4       2      11       6       5       8       4       3      12       8
       7       7       5       4       5       2       1       1       1       1
       1       1       1       1       3       1       1       2       1       1
       1       1       3       2       1       1       1       1       1       1
       1       1
%FLAG NONBONDED_PARM_INDEX                                                      
%FORMAT(10I8)                                                                   
       1       2       4       7      11      16      22      29      37      46
      56      67       2       3       5       8      12      17      23      30
      38      47      57      68       4       5       6       9      13      18
      24      31      39      48      58      69       7       8       9      10
      14      19      25      32      40      49      59      70      11      12
      13      14      15      20      26      33      41      50      60      71
      16      17      18      19      20      21      27      34      42      51
      61      72      22      23      24      25      26      27      28      35
      43      52      62      73      29      30      31      32      33      34
      35      36      44      53      63      74      37      38      39      40
      41      42      43      44      45      54      64      75      46      47
      48      49      50      51      52      53      54      55      65      76
      56      57      58      59      60      61      62      63      64      65
      66      77      67      68      69      70      71      72      73      74
      75      76      77      78
%FLAG RESIDUE_LABEL                                                             
%FORMAT(20a4)                                                                   
MOL 
%FLAG RESIDUE_POINTER                                                           
%FORMAT(10I8)                                                                   
       1
%FLAG BOND_FORCE_CONSTANT                                                       
%FORMAT(5E16.8)                                                                 
  2.50300000E+02  3.75900000E+02  3.78600000E+02  4.14200000E+02  3.95700000E+02
  2.84800000E+02  3.75900000E+02  3.57500000E+02  2.72700000E+02  6.52600000E+02
  3.56200000E+02  2.63800000E+02  5.27300000E+02  2.32500000E+02  2.43200000E+02
  1.81800000E+02  5.63500000E+02
%FLAG BOND_EQUIL_VALUE                                                          
%FORMAT(5E16.8)                                                                 
  1.51600000E+00  1.09700000E+00  1.39800000E+00  1.33900000E+00  1.08600000E+00
  1.43200000E+00  1.09700000E+00  1.37000000E+00  1.49100000E+00  1.21800000E+00
  1.37900000E+00  1.46200000E+00  1.01300000E+00  1.53800000E+00  1.52400000E+00
  1.40600000E+00  9.73000000E-01
%FLAG ANGLE_FORCE_CONSTANT                                                      
%FORMAT(5E16.8)                                                                 
  6.56000000E+01  8.49000000E+01  4.73000000E+01  6.88000000E+01  4.87000000E+01
  7.04000000E+01  8.68000000E+01  8.56000000E+01  4.75000000E+01  6.61000000E+01
  6.24000000E+01  8.73000000E+01  6.64000000E+01  8.62000000E+01  8.54000000E+01
  6.53000000E+01  4.87000000E+01  1.13800000E+02  8.32000000E+01  6.15000000E+01
  4.61000000E+01  6.49000000E+01  4.68000000E+01  6.53000000E+01  4.69000000E+01
  8.53000000E+01  6.63000000E+01  8.46000000E+01  8.43000000E+01  4.74000000E+01
  8.53000000E+01  6.39000000E+01  6.17000000E+01  1.10900000E+02  3.90000000E+01
  3.88000000E+01
%FLAG ANGLE_EQUIL_VALUE                                                         
%FORMAT(5E16.8)                                                                 
  2.10783504E+00  2.03645104E+00  1.92806605E+00  2.09474507E+00  2.09230160E+00
  2.04587583E+00  2.14570870E+00  1.90153704E+00  1.91218355E+00  2.05879127E+00
  1.91602327E+00  2.08043336E+00  2.10015559E+00  2.13977458E+00  2.01149283E+00
  2.10643878E+00  2.05163542E+00  2.14762857E+00  1.94796281E+00  1.90031530E+00
  2.05390434E+00  1.94621748E+00  1.91637234E+00  1.93801443E+00  1.91218355E+00
  1.88443280E+00  1.96314718E+00  2.15024656E+00  2.01027109E+00  1.89839544E+00
  2.01603068E+00  1.76784476E+00  1.93277844E+00  1.89001786E+00  1.87762601E+00
  1.89298492E+00
%FLAG DIHEDRAL_FORCE_CONSTANT                                                   
%FORMAT(5E16.8)                                                                 
  3.62500000E+00  4.80000000E+00  0.00000000E+00  0.00000000E+00  3.83333333E-01
  1.61000000E+00  5.22500000E-01  1.00000000E+00  2.50000000E+00  1.02000000E+00
  1.70000000E-01  1.00000000E-01  2.00000000E+00  1.00000000E-01  1.55555556E-01
  2.10000000E-01  1.10000000E-01  2.90000000E-01  1.30000000E-01  8.00000000E-02
  7.40000000E-01  2.70000000E-01  5.50000000E-01  7.10000000E-01  0.00000000E+00
  0.00000000E+00  1.60000000E-01  2.40000000E-01  3.37000000E-01  1.50000000E+00
  8.30000000E-01  4.00000000E-02  2.50000000E-01  0.00000000E+00  9.70000000E-01
  1.24000000E+00  0.00000000E+00  1.70000000E-01  1.20000000E-01  1.10000000E+00
  1.05000000E+01
%FLAG DIHEDRAL_PERIODICITY                                                      
%FORMAT(5E16.8)                                                                 
  2.00000000E+00  2.00000000E+00  2.00000000E+00  2.00000000E+00  3.00000000E+00
  2.00000000E+00  2.00000000E+00  2.00000000E+00  2.00000000E+00  1.00000000E+00
  3.00000000E+00  4.00000000E+00  1.00000000E+00  3.00000000E+00  3.00000000E+00
  3.00000000E+00  1.00000000E+00  2.00000000E+00  3.00000000E+00  3.00000000E+00
  1.00000000E+00  2.00000000E+00  3.00000000E+00  2.00000000E+00  4.00000000E+00
  1.00000000E+00  2.00000000E+00  3.00000000E+00  3.00000000E+00  2.00000000E+00
  1.00000000E+00  3.00000000E+00  1.00000000E+00  3.00000000E+00  1.00000000E+00
  2.00000000E+00  3.00000000E+00  1.00000000E+00  3.00000000E+00  2.00000000E+00
  2.00000000E+00
%FLAG DIHEDRAL_PHASE                                                            
%FORMAT(5E16.8)                                                                 
  3.14159400E+00  3.14159400E+00  3.14159400E+00  0.00000000E+00  0.00000000E+00
  3.14159400E+00  3.14159400E+00  3.14159400E+00  3.14159400E+00  3.14159400E+00
  0.00000000E+00  3.14159400E+00  0.00000000E+00  0.00000000E+00  0.00000000E+00
  0.00000000E+00  0.00000000E+00  3.14159400E+00  0.00000000E+00  0.00000000E+00
  0.00000000E+00  3.14159400E+00  3.14159400E+00  3.14159400E+00  3.14159400E+00
  0.00000000E+00  0.00000000E+00  0.00000000E+00  0.00000000E+00  0.00000000E+00
  0.00000000E+00  3.14159400E+00  0.00000000E+00  0.00000000E+00  3.14159400E+00
  0.00000000E+00  3.14159400E+00  3.14159400E+00  0.00000000E+00  3.14159400E+00
  3.14159400E+00
%FLAG SCEE_SCALE_FACTOR                                                         
%FORMAT(5E16.8)                                                                 
  1.20000000E+00  1.20000000E+00  1.20000000E+00  1.20000000E+00  1.20000000E+00
  1.20000000E+00  1.20000000E+00  1.20000000E+00  1.20000000E+00  1.20000000E+00
  1.20000000E+00  1.20000000E+00  1.20000000E+00  1.20000000E+00  1.20000000E+00
  1.20000000E+00  1.20000000E+00  1.20000000E+00  1.20000000E+00  1.20000000E+00
  1.20000000E+00  1.20000000E+00  1.20000000E+00  1.20000000E+00  1.20000000E+00
  1.20000000E+00  1.20000000E+00  1.20000000E+00  1.20000000E+00  1.20000000E+00
  1.20000000E+00  1.20000000E+00  1.20000000E+00  1.20000000E+00  1.20000000E+00
  1.20000000E+00  1.20000000E+00  1.20000000E+00  1.20000000E+00  0.00000000E+00
  0.00000000E+00
%FLAG SCNB_SCALE_FACTOR                                                         
%FORMAT(5E16.8)                                                                 
  2.00000000E+00  2.00000000E+00  2.00000000E+00  2.00000000E+00  2.00000000E+00
  2.00000000E+00  2.00000000E+00  2.00000000E+00  2.00000000E+00  2.00000000E+00
  2.00000000E+00  2.00000000E+00  2.00000000E+00  2.00000000E+00  2.00000000E+00
  2.00000000E+00  2.00000000E+00  2.00000000E+00  2.00000000E+00  2.00000000E+00
  2.00000000E+00  2.00000000E+00  2.00000000E+00  2.00000000E+00  2.00000000E+00
  2.00000000E+00  2.00000000E+00  2.00000000E+00  2.00000000E+00  2.00000000E+00
  2.00000000E+00  2.00000000E+00  2.00000000E+00  2.00000000E+00  2.00000000E+00
  2.00000000E+00  2.00000000E+00  2.00000000E+00  2.00000000E+00  0.00000000E+00
  0.00000000E+00
%FLAG SOLTY                                                                     
%FORMAT(5E16.8)                                                                 
  0.00000000E+00  0.00000000E+00  0.00000000E+00  0.00000000E+00  0.00000000E+00
  0.00000000E+00  0.00000000E+00  0.00000000E+00  0.00000000E+00  0.00000000E+00
  0.00000000E+00  0.00000000E+00  0.00000000E+00
%FLAG LENNARD_JONES_ACOEF                                                       
%FORMAT(5E16.8)                                                                 
  1.02073671E+06  8.43969952E+05  6.96551276E+05  5.42502534E+05  4.46121722E+05
  2.83662575E+05  6.30925504E+05  5.17507491E+05  3.27367585E+05  3.76435470E+05
  8.48258258E+05  6.99381362E+05  4.47026838E+05  5.17814271E+05  7.01825028E+05
  7.18991463E+05  5.92438683E+05  3.78207390E+05  4.37717034E+05  5.94304835E+05
  5.03152404E+05  9.31115275E+05  7.69642101E+05  4.94433451E+05  5.74782316E+05
  7.73425391E+05  6.55497149E+05  8.49322032E+05  1.00235148E+05  8.12662403E+04
  5.02224902E+04  5.68021765E+04  8.07866982E+04  6.80216136E+04  9.11435380E+04
  7.94617769E+03  9.27554496E+04  7.52549148E+04  4.65732396E+04  5.27277400E+04
  7.48403283E+04  6.30298721E+04  8.43518904E+04  7.41026906E+03  6.90855956E+03
  6.97998263E+04  5.63013422E+04  3.44374471E+04  3.86646725E+04  5.58085097E+04
  4.69084694E+04  6.34160397E+04  5.22955465E+03  4.88692384E+03  3.39005767E+03
  2.23577481E+03  1.71458823E+03  9.46795083E+02  9.87857350E+02  1.65195713E+03
  1.36475542E+03  2.01475241E+03  9.47421632E+01  9.04434904E+01  5.24570081E+01
  1.34728399E-01  3.03553352E+02  2.25372434E+02  1.16469347E+02  1.15813907E+02
  2.13197010E+02  1.74176419E+02  2.72118326E+02  8.80612241E+00  8.53132435E+00
  4.36660257E+00  2.61760843E-03  1.10360882E-05
%FLAG LENNARD_JONES_BCOEF                                                       
%FORMAT(5E16.8)                                                                 
  6.63431737E+02  5.90251928E+02  5.24668528E+02  4.38146883E+02  3.88758656E+02
  2.87011518E+02  5.62969425E+02  4.98871431E+02  3.67361018E+02  4.69350655E+02
  6.17825399E+02  5.48900066E+02  4.06301077E+02  5.21008860E+02  5.74088001E+02
  5.36620538E+02  4.76608379E+02  3.52573684E+02  4.51916854E+02  4.98393522E+02
  4.32634597E+02  6.12468585E+02  5.44830041E+02  4.04310927E+02  5.19385932E+02
  5.70234696E+02  4.95260330E+02  5.65406768E+02  1.37787728E+02  1.21392023E+02
  8.83545880E+01  1.11953944E+02  1.26366740E+02  1.09393126E+02  1.27000718E+02
  2.57122925E+01  1.24325688E+02  1.09570372E+02  7.98066064E+01  1.01173582E+02
  1.14083104E+02  9.87712192E+01  1.14599119E+02  2.32899892E+01  2.10929191E+01
  1.14981426E+02  1.01040256E+02  7.31636661E+01  9.23664132E+01  1.05029928E+02
  9.08431526E+01  1.05935811E+02  2.08590256E+01  1.89134207E+01  1.67944276E+01
  1.71355763E+01  1.46824710E+01  1.01016461E+01  1.22938581E+01  1.50468782E+01
  1.29026271E+01  1.57231024E+01  2.33785449E+00  2.14252117E+00  1.73959275E+00
  7.34107347E-02  5.22789272E+00  4.40751799E+00  2.93355636E+00  3.48534600E+00
  4.47571103E+00  3.81654050E+00  4.78443613E+00  5.90150328E-01  5.44840215E-01
  4.15568027E-01  8.47240681E-03  4.55498033E-04
%FLAG BONDS_INC_HYDROGEN                                                        
%FORMAT(10I8)                                                                   
       0     105       2       0     108       2       0     111       2       6
     114       5      12     117       7      12     120       7      21     123
       5      24     126       5      36     129      13      39     132       7
      42     135       2      42     138       2      48     141       2      48
     144       2      51     147       2      60     150      13      63     153
      17      69     156       7      69     159       7      72     162       7
      72     165       7      78     168       5      81     171       5      87
     174       5      90     177       5      93     180       5      96     183
       5
%FLAG BONDS_WITHOUT_HYDROGEN                                                    
%FORMAT(10I8)                                                                   
       0       3       1       3       6       3       3     102       4       6
       9       3       9      12       1       9      84       3      12      15
       6      15      18       8      18      21       3      18      81       3
      21      24       3      24      27       3      27      30       9      27
      78       3      30      33      10      30      36      11      36      39
      12      39      42      14      39      51      14      42      45      14
      45      48      14      45      66       6      45      75       6      48
      51      14      51      54      15      54      57      10      54      60
      11      60      63      16      66      69       6      69      72      14
      72      75       6      78      81       3      84      87       3      84
      99       3      87      90       3      90      93       3      93      96
       3      96      99       3      99     102       4
%FLAG ANGLES_INC_HYDROGEN                                                       
%FORMAT(10I8)                                                                   
       3       0     105       3       3       0     108       3       3       0
     111       3       3       6     114       5       9       6     114       5
       9      12     117       9       9      12     120       9      15      12
     117      11      15      12     120      11      18      21     123       5
      18      81     171       5      21      24     126       5      24      21
     123       5      27      24     126       5      27      78     168       5
      30      36     129      17      36      39     132      20      39      36
     129      21      39      42     135      23      39      42     138      23
      39      51     147      23      42      39     132      25      45      42
     135      23      45      42     138      23      45      48     141      23
      45      48     144      23      48      51     147      23      51      48
     141      23      51      48     144      23      51      39     132      25
      54      51     147      30      54      60     150      17      60      63
     153      32      63      60     150      33      66      69     156      11
      66      69     159      11      69      72     162      25      69      72
     165      25      72      69     156      25      72      69     159      25
      75      72     162      11      75      72     165      11      78      81
     171       5      81      78     168       5      84      87     174       5
      87      90     177       5      90      87     174       5      90      93
     180       5      93      90     177       5      93      96     183       5
      96      93     180       5      99      96     183       5     105       0
     108      35     105       0     111      35     108       0     111      35
     117      12     120      36     135      42     138      35     141      48
     144      35     156      69     159      36     162      72     165      36
%FLAG ANGLES_WITHOUT_HYDROGEN                                                   
%FORMAT(10I8)                                                                   
       0       3       6       1       0       3     102       2       3       6
       9       4       3     102      99       6       6       3     102       7
       6       9      12       1       6       9      84       4       9      12
      15       8       9      84      87       4       9      84      99       4
      12       9      84       1      12      15      18      10      15      18
      21      12      15      18      81      12      18      21      24       4
      18      81      78       4      21      18      81       4      21      24
      27       4      24      27      30      13      24      27      78       4
      27      30      33      14      27      30      36      15      27      78
      81       4      30      27      78      13      30      36      39      16
      33      30      36      18      36      39      42      19      36      39
      51      19      39      42      45      22      39      51      48      22
      39      51      54      24      42      39      51      22      42      45
      48      22      42      45      66      26      42      45      75      26
      45      48      51      22      45      66      69      27      45      75
      72      27      48      45      66      26      48      45      75      26
      48      51      54      24      51      54      57      28      51      54
      60      29      54      60      63      31      57      54      60      18
      66      45      75      34      66      69      72      26      69      72
      75      26      84      87      90       4      84      99      96       4
      84      99     102       7      87      84      99       4      87      90
      93       4      90      93      96       4      93      96      99       4
      96      99     102       7
%FLAG DIHEDRALS_INC_HYDROGEN                                                    
%FORMAT(10I8)                                                                   
       0       3       6     114       1     105       0       3       6       3
     108       0       3       6       3     111       0       3       6       3
       6       9      12     117       4       6       9      12     120       4
       9      84      87     174       1      12       9       6     114       1
      15      18      21     123       1      15      18      81     171       1
      18      15      12     117       5      18      15      12     120       5
      18      21      24     126       1      18      81      78     168       1
      21      18      81     171       1      24      27      78     168       1
      27      24      21     123       1      27      30      36     129       9
      27      78      81     171       1      30      27      24     126       1
      30      27      78     168       1      30      36      39     132       3
      33      30      36     129      13      33      30     -36     129       9
      36      39      42     135      15      36      39      42     138      15
      36      39      51     147      15      39      51      48     141      20
      39      51      48     144      20      42      39      36     129       4
      42      39      51     147      20      42      45      48     141      20
      42      45      48     144      20      45      42      39     132      15
      45      48      51     147      20      45      66      69     156      29
      45      66      69     159      29      45      75      72     162      29
      45      75      72     165      29      48      45      42     135      20
      48      45      42     138      20      48      51      39     132      15
      51      54      60     150       9      51      39      36     129       4
      51      39      42     135      20      51      39      42     138      20
      54      51      48     141      15      54      51      48     144      15
      54      51      39     132      15      54      60      63     153      30
      57      54      51     147      31      57      54     -51     147      32
      57      54      60     150      13      57      54     -60     150       9
      60      54      51     147       3      66      45      42     135      33
      66      45     -42     135      34      66      45      42     138      33
      66      45     -42     138      34      66      45      48     141      33
      66      45     -48     141      34      66      45      48     144      33
      66      45     -48     144      34      66      69      72     162      33
      66      69     -72     162      34      66      69      72     165      33
      66      69     -72     165      34      75      72      69     156      33
      75      72     -69     156      34      75      72      69     159      33
      75      72     -69     159      34      75      45      42     135      33
      75      45     -42     135      34      75      45      42     138      33
      75      45     -42     138      34      75      45      48     141      33
      75      45     -48     141      34      75      45      48     144      33
      75      45     -48     144      34      78      27      24     126       1
      81      18      21     123       1      84       9       6     114       1
      84       9      12     117       4      84       9      12     120       4
      84      87      90     177       1      84      99      96     183       1
      87      90      93     180       1      90      93      96     183       1
      93      90      87     174       1      96      93      90     177       1
      99      96      93     180       1      99      84      87     174       1
     102      99      96     183       1     105       0       3     102       4
     108       0       3     102       4     111       0       3     102       4
     102       3       6     114       1     123      21      24     126       1
     129      36      39     132       4     132      39      42     135      15
     132      39      42     138      15     132      39      51     147      15
     141      48      51     147      39     144      48      51     147      39
     150      60      63     153      30     156      69      72     162      15
     156      69      72     165      15     159      69      72     162      15
     159      69      72     165      15     168      78      81     171       1
     174      87      90     177       1     177      90      93     180       1
     180      93      96     183       1       3       9      -6    -114      40
      18      24     -21    -123      40      21      27     -24    -126      40
      30      39     -36    -129      40      54     150     -60     -63      40
      27      81     -78    -168      40      18      78     -81    -171      40
      84      90     -87    -174      40      87      93     -90    -177      40
      90      96     -93    -180      40      93      99     -96    -183      40
%FLAG DIHEDRALS_WITHOUT_HYDROGEN                                                
%FORMAT(10I8)                                                                   
       0       3       6       9       1       0       3     102      99       2
       3       6       9      12       1       3       6       9      84       1
       3     102      99      96       2       3     102     -99      84       2
       6       3     102      99       2       6       9      12      15       4
       6       9      84      87       1       6       9     -84      99       1
       9       6       3     102       1       9      12      15      18       5
       9      84      87      90       1       9      84      99      96       1
       9      84     -99     102       1      12       9      84      87       1
      12       9      84      99       1      12      15      18      21       6
      12      15      18      81       6      15      12       9      84       4
      15      18      21      24       1      15      18      81      78       1
      18      21      24      27       1      18      81     -78      27       1
      21      18      81      78       1      21      24      27      30       1
      21      24     -27      78       1      24      21      18      81       1
      24      27      30      33       7      24      27      30      36       8
      24      27     -78      81       1      27      30      36      39       9
      30      27      78      81       1      30      36      39      42      10
      30      36     -39      42      11      30      36     -39      42      12
      30      36      39      51      10      30      36     -39      51      11
      30      36     -39      51      12      33      30      27      78       7
      33      30      36      39       9      36      30      27      78       8
      36      39      42      45      14      36      39      51      48      14
      36      39      51      54      16      39      42     -45      48      17
      39      42     -45      48      18      39      42     -45      48      19
      39      42      45      66      15      39      42      45      75      15
      39      51     -48      45      17      39      51     -48      45      18
      39      51     -48      45      19      39      51      54      57      21
      39      51     -54      57      22      39      51     -54      57      23
      39      51      54      60      24      39      51     -54      60      25
      42      39     -51      48      17      42      39     -51      48      18
      42      39     -51      48      19      42      39      51      54      14
      42      45     -48      51      17      42      45     -48      51      18
      42      45     -48      51      19      42      45      66      69      26
      42      45     -66      69      27      42      45     -66      69      28
      42      45      75      72      26      42      45     -75      72      27
      42      45     -75      72      28      45      42     -39      51      17
      45      42     -39      51      18      45      42     -39      51      19
      45      48      51      54      14      45      66     -69      72      26
      45      66     -69      72      27      45      66     -69      72      28
      45      75     -72      69      26      45      75     -72      69      27
      45      75     -72      69      28      48      45      66      69      26
      48      45     -66      69      27      48      45     -66      69      28
      48      45      75      72      26      48      45     -75      72      27
      48      45     -75      72      28      48      51      54      57      21
      48      51     -54      57      22      48      51     -54      57      23
      48      51      54      60      24      48      51     -54      60      25
      51      48      45      66      15      51      48      45      75      15
      51      54      60      63       9      57      54      60      63       9
      66      45     -75      72      35      66      45     -75      72      36
      66      45     -75      72      37      66      69     -72      75      38
      66      69     -72      75       3      66      69     -72      75      34
      69      66     -45      75      35      69      66     -45      75      36
      69      66     -45      75      37      84      87      90      93       1
      84      99     -96      93       1      87      84      99      96       1
      87      84      99     102       1      87      90     -93      96       1
      90      87      84      99       1      90      93     -96      99       1
      93      96      99     102       1       0       6      -3    -102      40
       6      84      -9     -12      40      21      81     -18     -15      40
      30      24     -27     -78      40      27      36     -30     -33      41
      51      60     -54     -57      41       9      87     -84     -99      40
      84      96     -99    -102      40
%FLAG EXCLUDED_ATOMS_LIST                                                       
%FORMAT(10I8)                                                                   
       2       3       4      34      35      36      37      38      39       3
       4       5      29      33      34      35      36      37      38      39
       4       5       6      29      30      34      35      36      37      38
      39      40      41       5       6       7      29      30      31      33
      34      35      39      40      41      59       6       7       8      28
      29      30      34      39      40      41       7       8       9      27
      28      29      40      41      42      58       8       9      10      27
      28      40      41      42      43      57      58       9      10      11
      27      28      42      43      58      10      11      12      13      27
      28      42      43      57      11      12      13      14      27      28
      42      43      44      57      58      12      13      14      15      18
      27      28      43      44      45      57      13      14      27      44
      14      15      16      17      18      19      27      44      45      46
      47      50      15      16      17      18      19      20      21      23
      26      44      45      46      47      48      49      50      16      17
      18      19      23      24      25      26      44      45      46      47
      48      49      50      17      18      19      23      24      25      26
      45      46      47      48      49      50      53      54      55      56
      18      19      20      21      23      24      25      26      45      46
      47      48      49      50      19      20      21      22      23      26
      44      45      46      47      48      49      50      51      20      21
      22      45      48      49      50      51      52      21      22      50
      51      22      50      51      52      51      52      24      25      26
      46      47      48      49      53      54      55      56      25      26
      53      54      55      56      26      53      54      55      56      46
      47      48      49      53      54      55      56      28      43      57
      58      42      57      58      30      31      32      33      34      35
      39      40      41      59      60      62      31      32      33      34
      35      59      60      61      32      33      34      59      60      61
      62      33      34      35      59      60      61      62      34      35
      60      61      62      35      59      61      62      36      37      38
      39      62      37      38      38       0       0      41       0      43
       0      45      46      47      50      47       0      49      50      50
       0      52       0      54      55      56      55      56      56       0
      58       0      60      61      62       0
%FLAG HBOND_ACOEF                                                               
%FORMAT(5E16.8)                                                                 

%FLAG HBOND_BCOEF                                                               
%FORMAT(5E16.8)                                                                 

%FLAG HBCUT                                                                     
%FORMAT(5E16.8)                                                                 

%FLAG AMBER_ATOM_TYPE                                                           
%FORMAT(20a4)                                                                   
c3  ca  ca  ca  c3  os  ca  ca  ca  ca  c   o   ns  c3  c3  c3  c3  c3  c   o   
ns  oh  os  c3  c3  os  ca  ca  ca  ca  ca  ca  ca  ca  nb  hc  hc  hc  ha  h1  
h1  ha  ha  hn  h1  hc  hc  hc  hc  hc  hn  ho  h1  h1  h1  h1  ha  ha  ha  ha  
ha  ha  
%FLAG TREE_CHAIN_CLASSIFICATION                                                 
%FORMAT(20a4)                                                                   
BLA BLA BLA BLA BLA BLA BLA BLA BLA BLA BLA BLA BLA BLA BLA BLA BLA BLA BLA BLA 
BLA BLA BLA BLA BLA BLA BLA BLA BLA BLA BLA BLA BLA BLA BLA BLA BLA BLA BLA BLA 
BLA BLA BLA BLA BLA BLA BLA BLA BLA BLA BLA BLA BLA BLA BLA BLA BLA BLA BLA BLA 
BLA BLA 
%FLAG JOIN_ARRAY                                                                
%FORMAT(10I8)                                                                   
       0       0       0       0       0       0       0       0       0       0
       0       0       0       0       0       0       0       0       0       0
       0       0       0       0       0       0       0       0       0       0
       0       0       0       0       0       0       0       0       0       0
       0       0       0       0       0       0       0       0       0       0
       0       0       0       0       0       0       0       0       0       0
       0       0
%FLAG IROTAT                                                                    
%FORMAT(10I8)                                                                   
       0       0       0       0       0       0       0       0       0       0
       0       0       0       0       0       0       0       0       0       0
       0       0       0       0       0       0       0       0       0       0
       0       0       0       0       0       0       0       0       0       0
       0       0       0       0       0       0       0       0       0       0
       0       0       0       0       0       0       0       0       0       0
       0       0
%FLAG RADIUS_SET                                                                
%FORMAT(1a80)                                                                   
modified Bondi radii (mbondi)                                                   
%FLAG RADII                                                                     
%FORMAT(5E16.8)                                                                 
  1.70000000E+00  1.70000000E+00  1.70000000E+00  1.70000000E+00  1.70000000E+00
  1.50000000E+00  1.70000000E+00  1.70000000E+00  1.70000000E+00  1.70000000E+00
  1.70000000E+00  1.50000000E+00  1.55000000E+00  1.70000000E+00  1.70000000E+00
  1.70000000E+00  1.70000000E+00  1.70000000E+00  1.70000000E+00  1.50000000E+00
  1.55000000E+00  1.50000000E+00  1.50000000E+00  1.70000000E+00  1.70000000E+00
  1.50000000E+00  1.70000000E+00  1.70000000E+00  1.70000000E+00  1.70000000E+00
  1.70000000E+00  1.70000000E+00  1.70000000E+00  1.70000000E+00  1.55000000E+00
  1.30000000E+00  1.30000000E+00  1.30000000E+00  1.30000000E+00  1.30000000E+00
  1.30000000E+00  1.30000000E+00  1.30000000E+00  1.30000000E+00  1.30000000E+00
  1.30000000E+00  1.30000000E+00  1.30000000E+00  1.30000000E+00  1.30000000E+00
  1.30000000E+00  8.00000000E-01  1.30000000E+00  1.30000000E+00  1.30000000E+00
  1.30000000E+00  1.30000000E+00  1.30000000E+00  1.30000000E+00  1.30000000E+00
  1.30000000E+00  1.30000000E+00
%FLAG SCREEN                                                                    
%FORMAT(5E16.8)                                                                 
  7.20000000E-01  7.20000000E-01  7.20000000E-01  7.20000000E-01  7.20000000E-01
  8.50000000E-01  7.20000000E-01  7.20000000E-01  7.20000000E-01  7.20000000E-01
  7.20000000E-01  8.50000000E-01  7.90000000E-01  7.20000000E-01  7.20000000E-01
  7.20000000E-01  7.20000000E-01  7.20000000E-01  7.20000000E-01  8.50000000E-01
  7.90000000E-01  8.50000000E-01  8.50000000E-01  7.20000000E-01  7.20000000E-01
  8.50000000E-01  7.20000000E-01  7.20000000E-01  7.20000000E-01  7.20000000E-01
  7.20000000E-01  7.20000000E-01  7.20000000E-01  7.20000000E-01  7.90000000E-01
  8.50000000E-01  8.50000000E-01  8.50000000E-01  8.50000000E-01  8.50000000E-01
  8.50000000E-01  8.50000000E-01  8.50000000E-01  8.50000000E-01  8.50000000E-01
  8.50000000E-01  8.50000000E-01  8.50000000E-01  8.50000000E-01  8.50000000E-01
  8.50000000E-01  8.50000000E-01  8.50000000E-01  8.50000000E-01  8.50000000E-01
  8.50000000E-01  8.50000000E-01  8.50000000E-01  8.50000000E-01  8.50000000E-01
  8.50000000E-01  8.50000000E-01
%FLAG IPOL                                                                      
%FORMAT(1I8)                                                                    
       0
