MOL
    30
   1.4830000   1.7710000   1.3910000   0.3790000   0.7250000   1.3570000
   0.8550000  -0.5740000   0.7520000   1.4020000  -1.4400000   1.6370000
   1.8820000  -2.5870000   1.1580000   2.4370000  -3.4570000   2.0490000
   1.8620000  -2.9430000  -0.1250000   1.3060000  -2.0810000  -0.9910000
   1.3500000  -2.4850000  -2.3150000   0.7800000  -0.8450000  -0.6130000
   0.1950000   0.0850000  -1.5900000  -1.1960000   0.1500000  -1.7750000
  -1.7520000   1.0290000  -2.7080000  -0.9200000   1.8470000  -3.4690000
  -1.6040000   2.9290000  -4.6190000   0.4620000   1.7920000  -3.3070000
   1.0160000   0.9130000  -2.3730000   1.1170000   2.6910000   1.8590000
   1.8320000   2.0200000   0.3840000   2.3450000   1.4180000   1.9660000
  -0.4980000   1.1140000   0.8300000   0.0430000   0.5310000   2.3830000
   2.4690000  -3.1830000   3.0140000   2.8190000  -4.3150000   1.6940000
   1.7630000  -3.4000000  -2.4430000   0.5990000  -2.2110000  -2.9310000
  -1.8570000  -0.4860000  -1.1880000  -2.8310000   1.0700000  -2.8360000
   1.1130000   2.4260000  -3.9020000   2.0990000   0.8730000  -2.2590000
