%VERSION  VERSION_STAMP = V0001.000  DATE = 07/11/26  14:43:03                  
%FLAG TITLE                                                                     
%FORMAT(20a4)                                                                   
MOL                                                                             
%FLAG POINTERS                                                                  
%FORMAT(10I8)                                                                   
      30       8      13      18      25      25      41      38       0       0
     147       1      18      25      38      11      20       8       9       0
       0       0       0       0       0       0       0       0      30       0
       0
%FLAG ATOM_NAME                                                                 
%FORMAT(20a4)                                                                   
C1  C2  C3  N1  C4  N2  N3  C5  N4  C6  C7  C8  C9  C10 Cl1 C11 C12 H1  H2  H3  
H4  H5  H6  H7  H8  H9  H10 H11 H12 H13 
%FLAG CHARGE                                                                    
%FORMAT(5E16.8)                                                                 
 -1.56894003E+00 -2.54565531E+00  9.63230778E+00 -1.43591724E+01  1.65075816E+01
 -1.69011832E+01 -1.49787306E+01  1.31783674E+01 -1.72474070E+01 -7.28163108E+00
 -2.55112200E-01 -2.15023140E+00 -2.33245440E+00  2.80623420E-01 -1.72018512E+00
 -2.33245440E+00 -2.15023140E+00  7.35579584E-01  7.35579584E-01  7.35579584E-01
  1.11520476E+00  1.11520476E+00  7.76816649E+00  7.76816649E+00  7.76816649E+00
  7.76816649E+00  2.65134465E+00  2.69690040E+00  2.69690040E+00  2.65134465E+00
%FLAG ATOMIC_NUMBER                                                             
%FORMAT(10I8)                                                                   
       6       6       6       7       6       7       7       6       7       6
       6       6       6       6      17       6       6       1       1       1
       1       1       1       1       1       1       1       1       1       1
%FLAG MASS                                                                      
%FORMAT(5E16.8)                                                                 
  1.20100000E+01  1.20100000E+01  1.20100000E+01  1.40100000E+01  1.20100000E+01
  1.40100000E+01  1.40100000E+01  1.20100000E+01  1.40100000E+01  1.20100000E+01
  1.20100000E+01  1.20100000E+01  1.20100000E+01  1.20100000E+01  3.54500000E+01
  1.20100000E+01  1.20100000E+01  1.00800000E+00  1.00800000E+00  1.00800000E+00
  1.00800000E+00  1.00800000E+00  1.00800000E+00  1.00800000E+00  1.00800000E+00
  1.00800000E+00  1.00800000E+00  1.00800000E+00  1.00800000E+00  1.00800000E+00
%FLAG ATOM_TYPE_INDEX                                                           
%FORMAT(10I8)                                                                   
       1       1       2       3       2       4       3       2       4       2
       2       2       2       2       5       2       2       6       6       6
       6       6       7       7       7       7       8       8       8       8
%FLAG NUMBER_EXCLUDED_ATOMS                                                     
%FORMAT(10I8)                                                                   
       9      11      15      10       7       4       8       7       4      11
       9       8       7       7       4       4       3       4       3       2
       1       1       1       1       1       1       1       1       1       1
%FLAG NONBONDED_PARM_INDEX                                                      
%FORMAT(10I8)                                                                   
       1       2       4       7      11      16      22      29       2       3
       5       8      12      17      23      30       4       5       6       9
      13      18      24      31       7       8       9      10      14      19
      25      32      11      12      13      14      15      20      26      33
      16      17      18      19      20      21      27      34      22      23
      24      25      26      27      28      35      29      30      31      32
      33      34      35      36
%FLAG RESIDUE_LABEL                                                             
%FORMAT(20a4)                                                                   
MOL 
%FLAG RESIDUE_POINTER                                                           
%FORMAT(10I8)                                                                   
       1
%FLAG BOND_FORCE_CONSTANT                                                       
%FORMAT(5E16.8)                                                                 
  2.32500000E+02  3.75900000E+02  2.50300000E+02  4.14200000E+02  3.68400000E+02
  3.47100000E+02  5.29500000E+02  2.77600000E+02  3.78600000E+02  3.95700000E+02
  1.82000000E+02
%FLAG BOND_EQUIL_VALUE                                                          
%FORMAT(5E16.8)                                                                 
  1.53800000E+00  1.09700000E+00  1.51600000E+00  1.33900000E+00  1.40600000E+00
  1.38600000E+00  1.01200000E+00  1.48500000E+00  1.39800000E+00  1.08600000E+00
  1.75000000E+00
%FLAG ANGLE_FORCE_CONSTANT                                                      
%FORMAT(5E16.8)                                                                 
  6.52000000E+01  4.68000000E+01  8.49000000E+01  6.55000000E+01  4.73000000E+01
  7.04000000E+01  6.89000000E+01  6.61000000E+01  8.64000000E+01  1.12100000E+02
  1.09400000E+02  4.88000000E+01  8.57000000E+01  6.84000000E+01  4.85000000E+01
  6.88000000E+01  4.87000000E+01  7.21000000E+01  3.90000000E+01  3.95000000E+01
%FLAG ANGLE_EQUIL_VALUE                                                         
%FORMAT(5E16.8)                                                                 
  1.95599133E+00  1.91637234E+00  2.03645104E+00  2.10539158E+00  1.92806605E+00
  2.04587583E+00  2.06612165E+00  2.11376916E+00  2.15687881E+00  2.04098890E+00
  2.22110696E+00  2.02580453E+00  2.12162315E+00  2.10643878E+00  2.09195254E+00
  2.09474507E+00  2.09230160E+00  2.08374949E+00  1.87762601E+00  2.00922390E+00
%FLAG DIHEDRAL_FORCE_CONSTANT                                                   
%FORMAT(5E16.8)                                                                 
  0.00000000E+00  4.80000000E+00  3.62500000E+00  1.55555556E-01  7.95000000E-01
  1.05000000E+00  1.20000000E-01  1.10000000E+00
%FLAG DIHEDRAL_PERIODICITY                                                      
%FORMAT(5E16.8)                                                                 
  2.00000000E+00  2.00000000E+00  2.00000000E+00  3.00000000E+00  2.00000000E+00
  2.00000000E+00  3.00000000E+00  2.00000000E+00
%FLAG DIHEDRAL_PHASE                                                            
%FORMAT(5E16.8)                                                                 
  0.00000000E+00  3.14159400E+00  3.14159400E+00  0.00000000E+00  3.14159400E+00
  3.14159400E+00  0.00000000E+00  3.14159400E+00
%FLAG SCEE_SCALE_FACTOR                                                         
%FORMAT(5E16.8)                                                                 
  1.20000000E+00  1.20000000E+00  1.20000000E+00  1.20000000E+00  1.20000000E+00
  1.20000000E+00  1.20000000E+00  0.00000000E+00
%FLAG SCNB_SCALE_FACTOR                                                         
%FORMAT(5E16.8)                                                                 
  2.00000000E+00  2.00000000E+00  2.00000000E+00  2.00000000E+00  2.00000000E+00
  2.00000000E+00  2.00000000E+00  0.00000000E+00
%FLAG SOLTY                                                                     
%FORMAT(5E16.8)                                                                 
  0.00000000E+00  0.00000000E+00  0.00000000E+00  0.00000000E+00  0.00000000E+00
  0.00000000E+00  0.00000000E+00  0.00000000E+00  0.00000000E+00
%FLAG LENNARD_JONES_ACOEF                                                       
%FORMAT(5E16.8)                                                                 
  1.02073671E+06  8.43969952E+05  6.96551276E+05  9.31115275E+05  7.69642101E+05
  8.49322032E+05  9.87370297E+05  8.15855629E+05  9.00584118E+05  9.54875571E+05
  1.80018612E+06  1.49062160E+06  1.64251971E+06  1.74224911E+06  3.17107030E+06
  1.00235148E+05  8.12662403E+04  9.11435380E+04  9.62844277E+04  1.79601155E+05
  7.94617769E+03  2.23577481E+03  1.71458823E+03  2.01475241E+03  2.10567903E+03
  4.18912581E+03  9.47421632E+01  1.34728399E-01  9.27554496E+04  7.52549148E+04
  8.43518904E+04  8.91217989E+04  1.66104821E+05  7.41026906E+03  9.04434904E+01
  6.90855956E+03
%FLAG LENNARD_JONES_BCOEF                                                       
%FORMAT(5E16.8)                                                                 
  6.63431737E+02  5.90251928E+02  5.24668528E+02  6.12468585E+02  5.44830041E+02
  5.65406768E+02  6.58763033E+02  5.85909304E+02  6.08126668E+02  6.54052181E+02
  1.10195051E+03  9.81118883E+02  1.01742263E+03  1.09448125E+03  1.82923847E+03
  1.37787728E+02  1.21392023E+02  1.27000718E+02  1.36341592E+02  2.30684859E+02
  2.57122925E+01  1.71355763E+01  1.46824710E+01  1.57231024E+01  1.67892226E+01
  2.93366416E+01  2.33785449E+00  7.34107347E-02  1.24325688E+02  1.09570372E+02
  1.14599119E+02  1.23036209E+02  2.08087638E+02  2.32899892E+01  2.14252117E+00
  2.10929191E+01
%FLAG BONDS_INC_HYDROGEN                                                        
%FORMAT(10I8)                                                                   
       0      51       2       0      54       2       0      57       2       3
      60       2       3      63       2      15      66       7      15      69
       7      24      72       7      24      75       7      33      78      10
      36      81      10      45      84      10      48      87      10
%FLAG BONDS_WITHOUT_HYDROGEN                                                    
%FORMAT(10I8)                                                                   
       0       3       1       3       6       3       6       9       4       6
      27       5       9      12       4      12      15       6      12      18
       4      18      21       4      21      24       6      21      27       5
      27      30       8      30      33       5      30      48       5      33
      36       9      36      39       9      39      42      11      39      45
       9      45      48       9
%FLAG ANGLES_INC_HYDROGEN                                                       
%FORMAT(10I8)                                                                   
       0       3      60       2       0       3      63       2       3       0
      51       2       3       0      54       2       3       0      57       2
       6       3      60       5       6       3      63       5      12      15
      66      12      12      15      69      12      21      24      72      12
      21      24      75      12      30      33      78      15      30      48
      87      15      33      36      81      17      36      33      78      17
      39      36      81      17      39      45      84      17      45      48
      87      17      48      45      84      17      51       0      54      19
      51       0      57      19      54       0      57      19      60       3
      63      19      66      15      69      20      72      24      75      20
%FLAG ANGLES_WITHOUT_HYDROGEN                                                   
%FORMAT(10I8)                                                                   
       0       3       6       1       3       6       9       3       3       6
      27       4       6       9      12       6       6      27      21       7
       6      27      30       8       9       6      27       9       9      12
      15      10       9      12      18      11      12      18      21       6
      15      12      18      10      18      21      24      10      18      21
      27       9      21      27      30       8      24      21      27      13
      27      30      33       8      27      30      48       8      30      33
      36      14      30      48      45      14      33      30      48       7
      33      36      39      16      36      39      42      18      36      39
      45      16      39      45      48      16      42      39      45      18
%FLAG DIHEDRALS_INC_HYDROGEN                                                    
%FORMAT(10I8)                                                                   
      51       0       3       6       4      54       0       3       6       4
      57       0       3       6       4       9       6       3      60       1
       9       6       3      63       1       9      12      15      66       6
       9      12      15      69       6      18      12      15      66       6
      18      12      15      69       6      18      21      24      72       6
      18      21      24      75       6      27      21      24      72       6
      27      21      24      75       6      27      30      33      78       3
      27      30      48      87       3      27       6       3      60       1
      27       6       3      63       1      30      33      36      81       3
      30      48      45      84       3      33      30      48      87       3
      36      39      45      84       3      39      36      33      78       3
      39      45      48      87       3      42      39      36      81       3
      42      39      45      84       3      45      39      36      81       3
      48      30      33      78       3      51       0       3      60       7
      51       0       3      63       7      54       0       3      60       7
      54       0       3      63       7      57       0       3      60       7
      57       0       3      63       7      78      33      36      81       3
      84      45      48      87       3      12      66     -15     -69       8
      21      72     -24     -75       8      36      30     -33     -78       8
      33      39     -36     -81       8      39      48     -45     -84       8
      45      30     -48     -87       8
%FLAG DIHEDRALS_WITHOUT_HYDROGEN                                                
%FORMAT(10I8)                                                                   
       0       3       6       9       1       0       3       6      27       1
       3       6       9      12       2       3       6      27      21       3
       3       6      27      30       3       6       9      12      15       2
       6       9      12      18       2       6      27     -21      18       3
       6      27      21      24       3       6      27      30      33       5
       6      27      30      48       5       9       6      27      21       3
       9       6      27      30       3       9      12     -18      21       2
      12       9       6      27       2      12      18      21      24       2
      12      18     -21      27       2      15      12      18      21       2
      18      21      27      30       3      21      27      30      33       5
      21      27      30      48       5      24      21      27      30       3
      27      30      33      36       3      27      30      48      45       3
      30      33      36      39       3      30      48     -45      39       3
      33      30      48      45       3      33      36      39      42       3
      33      36     -39      45       3      36      33      30      48       3
      36      39     -45      48       3      42      39      45      48       3
       3      27      -6      -9       8       9      18     -12     -15       8
      27      18     -21     -24       8       6      21     -27     -30       8
      33      48     -30     -27       8      36      45     -39     -42       8
%FLAG EXCLUDED_ATOMS_LIST                                                       
%FORMAT(10I8)                                                                   
       2       3       4      10      18      19      20      21      22       3
       4       5       8      10      11      18      19      20      21      22
       4       5       6       7       8       9      10      11      12      17
      18      19      20      21      22       5       6       7       8      10
      11      21      22      23      24       6       7       8       9      10
      23      24       7       8      23      24       8       9      10      11
      23      24      25      26       9      10      11      12      17      25
      26      10      11      25      26      11      12      13      16      17
      21      22      25      26      27      30      12      13      14      16
      17      27      28      29      30      13      14      15      16      17
      27      28      30      14      15      16      17      27      28      29
      15      16      17      27      28      29      30      16      17      28
      29      17      28      29      30      27      29      30      19      20
      21      22      20      21      22      21      22      22       0      24
       0      26       0      28       0      30       0
%FLAG HBOND_ACOEF                                                               
%FORMAT(5E16.8)                                                                 

%FLAG HBOND_BCOEF                                                               
%FORMAT(5E16.8)                                                                 

%FLAG HBCUT                                                                     
%FORMAT(5E16.8)                                                                 

%FLAG AMBER_ATOM_TYPE                                                           
%FORMAT(20a4)                                                                   
c3  c3  ca  nb  ca  nv  nb  ca  nv  cp  cp  ca  ca  ca  cl  ca  ca  hc  hc  hc  
hc  hc  hn  hn  hn  hn  ha  ha  ha  ha  
%FLAG TREE_CHAIN_CLASSIFICATION                                                 
%FORMAT(20a4)                                                                   
BLA BLA BLA BLA BLA BLA BLA BLA BLA BLA BLA BLA BLA BLA BLA BLA BLA BLA BLA BLA 
BLA BLA BLA BLA BLA BLA BLA BLA BLA BLA 
%FLAG JOIN_ARRAY                                                                
%FORMAT(10I8)                                                                   
       0       0       0       0       0       0       0       0       0       0
       0       0       0       0       0       0       0       0       0       0
       0       0       0       0       0       0       0       0       0       0
%FLAG IROTAT                                                                    
%FORMAT(10I8)                                                                   
       0       0       0       0       0       0       0       0       0       0
       0       0       0       0       0       0       0       0       0       0
       0       0       0       0       0       0       0       0       0       0
%FLAG RADIUS_SET                                                                
%FORMAT(1a80)                                                                   
modified Bondi radii (mbondi)                                                   
%FLAG RADII                                                                     
%FORMAT(5E16.8)                                                                 
  1.70000000E+00  1.70000000E+00  1.70000000E+00  1.55000000E+00  1.70000000E+00
  1.55000000E+00  1.55000000E+00  1.70000000E+00  1.55000000E+00  1.70000000E+00
  1.70000000E+00  1.70000000E+00  1.70000000E+00  1.70000000E+00  1.70000000E+00
  1.70000000E+00  1.70000000E+00  1.30000000E+00  1.30000000E+00  1.30000000E+00
  1.30000000E+00  1.30000000E+00  1.30000000E+00  1.30000000E+00  1.30000000E+00
  1.30000000E+00  1.30000000E+00  1.30000000E+00  1.30000000E+00  1.30000000E+00
%FLAG SCREEN                                                                    
%FORMAT(5E16.8)                                                                 
  7.20000000E-01  7.20000000E-01  7.20000000E-01  7.90000000E-01  7.20000000E-01
  7.90000000E-01  7.90000000E-01  7.20000000E-01  7.90000000E-01  7.20000000E-01
  7.20000000E-01  7.20000000E-01  7.20000000E-01  7.20000000E-01  8.00000000E-01
  7.20000000E-01  7.20000000E-01  8.50000000E-01  8.50000000E-01  8.50000000E-01
  8.50000000E-01  8.50000000E-01  8.50000000E-01  8.50000000E-01  8.50000000E-01
  8.50000000E-01  8.50000000E-01  8.50000000E-01  8.50000000E-01  8.50000000E-01
%FLAG IPOL                                                                      
%FORMAT(1I8)                                                                    
       0
