MOL
    54
  -2.1530000  -0.2520000  -0.4410000  -1.7720000   0.8650000  -0.1340000
  -0.5560000   1.5300000  -0.6670000   0.1680000   1.0130000  -1.6780000
   1.3270000   1.6980000  -2.3100000   1.3000000   3.1050000  -2.4110000
   2.3120000   3.8340000  -3.0620000   3.4050000   3.2230000  -3.6770000
   4.3320000   3.8650000  -4.2880000   3.3900000   1.8050000  -3.5750000
   4.4670000   1.1930000  -4.2060000   2.4050000   1.0190000  -2.9150000
   2.5730000  -0.4530000  -2.9770000   2.5210000  -1.3020000  -1.9370000
   2.8130000  -2.7450000  -2.0470000   2.0740000  -3.6610000  -1.2910000
   2.3610000  -5.0430000  -1.3340000   3.3950000  -5.5870000  -2.1120000
   3.6800000  -6.8370000  -2.1640000   4.1140000  -4.6160000  -2.8460000
   5.1480000  -5.0990000  -3.6220000   3.8580000  -3.2410000  -2.8300000
  -2.3480000   1.7210000   0.7500000  -3.6870000   1.3730000   1.2040000
  -4.1680000   2.4220000   2.2250000  -3.7610000   2.2540000   3.6800000
  -2.5940000   1.6070000   4.0940000  -2.2490000   1.5290000   5.4630000
  -3.0260000   2.0920000   6.4910000  -2.7310000   2.0390000   7.7390000
  -4.1840000   2.7430000   6.0170000  -4.9840000   3.3240000   6.9810000
  -4.5580000   2.8380000   4.6750000  -4.7210000   1.5220000   0.0480000
  -4.4930000   2.4370000  -0.8020000  -5.7260000   0.7490000   0.1120000
  -0.3160000   2.4820000  -0.2100000  -0.1100000   0.0530000  -2.1080000
   0.4670000   3.6740000  -2.0060000   2.2280000   4.9180000  -3.1020000
   4.9210000   2.0100000  -4.5230000   2.8370000  -0.8180000  -3.9670000
   2.2790000  -0.9420000  -0.9410000   1.2570000  -3.3180000  -0.6620000
   1.7510000  -5.7160000  -0.7330000   5.0370000  -6.0540000  -3.3940000
   4.4860000  -2.5790000  -3.4150000  -3.6950000   0.3590000   1.6210000
  -3.8130000   3.4160000   1.9180000  -5.2670000   2.4580000   2.2150000
  -1.9250000   1.1550000   3.3660000  -1.3300000   1.0100000   5.7320000
  -4.4340000   3.0660000   7.7610000  -5.4670000   3.3700000   4.4170000
