%VERSION  VERSION_STAMP = V0001.000  DATE = 07/11/26  14:14:32                  
%FLAG TITLE                                                                     
%FORMAT(20a4)                                                                   
MOL                                                                             
%FLAG POINTERS                                                                  
%FORMAT(10I8)                                                                   
      54       9      18      38      35      53      79      87       0       0
     274       1      38      53      87      19      32      28      12       0
       0       0       0       0       0       0       0       0      54       0
       0
%FLAG ATOM_NAME                                                                 
%FORMAT(20a4)                                                                   
O1  C1  C2  C3  C4  C5  C6  C7  O2  C8  O3  C9  C10 C11 C12 C13 C14 C15 O4  C16 
O5  C17 O6  C18 C19 C20 C21 C22 C23 O7  C24 O8  C25 C26 O9  O10 H1  H2  H3  H4  
H5  H6  H7  H8  H9  H10 H11 H12 H13 H14 H15 H16 H17 H18 
%FLAG CHARGE                                                                    
%FORMAT(5E16.8)                                                                 
 -1.09151577E+01  1.16677387E+01 -5.39744526E+00  4.15468440E-01 -4.00526154E+00
 -8.56448100E-01 -6.37780500E+00  9.48835161E+00 -1.55381552E+01 -1.56529557E+00
 -9.80541963E+00  3.68090460E-01 -2.57298876E+00 -1.29742776E+00 -3.54970404E+00
 -1.11156030E+00 -6.15913740E+00  9.34257321E+00 -1.57932674E+01 -1.85685237E+00
 -1.02063102E+01 -1.40311710E+00 -7.83376677E+00  7.67158830E-01 -3.29823630E-01
 -3.44948139E+00 -1.33022790E+00 -6.08624820E+00  9.12390561E+00 -1.62852695E+01
 -1.94796387E+00 -1.03703109E+01 -1.62178470E+00  1.68665609E+01 -1.56128666E+01
 -1.56128666E+01  2.42356590E+00  2.44178820E+00  1.80400770E+00  1.69467390E+00
  7.36180920E+00  2.09556450E+00  1.93156380E+00  1.73111850E+00  1.69467390E+00
  7.38003150E+00  2.11378680E+00  1.27009431E+00  5.77646910E-01  5.77646910E-01
  2.00445300E+00  1.60356240E+00  7.34358690E+00  1.87689690E+00
%FLAG ATOMIC_NUMBER                                                             
%FORMAT(10I8)                                                                   
       8       6       6       6       6       6       6       6       8       6
       8       6       6       6       6       6       6       6       8       6
       8       6       8       6       6       6       6       6       6       8
       6       8       6       6       8       8       1       1       1       1
       1       1       1       1       1       1       1       1       1       1
       1       1       1       1
%FLAG MASS                                                                      
%FORMAT(5E16.8)                                                                 
  1.60000000E+01  1.20100000E+01  1.20100000E+01  1.20100000E+01  1.20100000E+01
  1.20100000E+01  1.20100000E+01  1.20100000E+01  1.60000000E+01  1.20100000E+01
  1.60000000E+01  1.20100000E+01  1.20100000E+01  1.20100000E+01  1.20100000E+01
  1.20100000E+01  1.20100000E+01  1.20100000E+01  1.60000000E+01  1.20100000E+01
  1.60000000E+01  1.20100000E+01  1.60000000E+01  1.20100000E+01  1.20100000E+01
  1.20100000E+01  1.20100000E+01  1.20100000E+01  1.20100000E+01  1.60000000E+01
  1.20100000E+01  1.60000000E+01  1.20100000E+01  1.20100000E+01  1.60000000E+01
  1.60000000E+01  1.00800000E+00  1.00800000E+00  1.00800000E+00  1.00800000E+00
  1.00800000E+00  1.00800000E+00  1.00800000E+00  1.00800000E+00  1.00800000E+00
  1.00800000E+00  1.00800000E+00  1.00800000E+00  1.00800000E+00  1.00800000E+00
  1.00800000E+00  1.00800000E+00  1.00800000E+00  1.00800000E+00
%FLAG ATOM_TYPE_INDEX                                                           
%FORMAT(10I8)                                                                   
       1       2       2       2       2       2       2       2       1       2
       3       2       2       2       2       2       2       2       1       2
       3       2       4       5       5       2       2       2       2       1
       2       3       2       2       1       1       6       6       6       6
       7       6       6       6       6       7       6       8       9       9
       6       6       7       6
%FLAG NUMBER_EXCLUDED_ATOMS                                                     
%FORMAT(10I8)                                                                   
       6      10       8      10      13       9       7       8       4       7
       3       8       6       9      11       9       7       8       4       5
       3       4      10      10      13      13      10       7       8       4
       5       3       5       5       2       1       1       1       1       1
       1       1       1       1       1       1       1       2       1       1
       1       1       1       1
%FLAG NONBONDED_PARM_INDEX                                                      
%FORMAT(10I8)                                                                   
       1       2       4       7      11      16      22      29      37       2
       3       5       8      12      17      23      30      38       4       5
       6       9      13      18      24      31      39       7       8       9
      10      14      19      25      32      40      11      12      13      14
      15      20      26      33      41      16      17      18      19      20
      21      27      34      42      22      23      24      25      26      27
      28      35      43      29      30      31      32      33      34      35
      36      44      37      38      39      40      41      42      43      44
      45
%FLAG RESIDUE_LABEL                                                             
%FORMAT(20a4)                                                                   
MOL 
%FLAG RESIDUE_POINTER                                                           
%FORMAT(10I8)                                                                   
       1
%FLAG BOND_FORCE_CONSTANT                                                       
%FORMAT(5E16.8)                                                                 
  6.52600000E+02  2.80400000E+02  3.72900000E+02  4.52200000E+02  3.91400000E+02
  2.86500000E+02  3.91400000E+02  3.78600000E+02  3.95700000E+02  6.06500000E+02
  3.65600000E+02  5.63500000E+02  2.86500000E+02  2.84800000E+02  2.32500000E+02
  2.43200000E+02  3.75900000E+02  2.50300000E+02  3.75900000E+02
%FLAG BOND_EQUIL_VALUE                                                          
%FORMAT(5E16.8)                                                                 
  1.21800000E+00  1.48200000E+00  1.35800000E+00  1.35100000E+00  1.08800000E+00
  1.47600000E+00  1.08800000E+00  1.39800000E+00  1.08600000E+00  1.23600000E+00
  1.36400000E+00  9.73000000E-01  1.47600000E+00  1.43200000E+00  1.53800000E+00
  1.52400000E+00  1.09700000E+00  1.51600000E+00  1.09700000E+00
%FLAG ANGLE_FORCE_CONSTANT                                                      
%FORMAT(5E16.8)                                                                 
  8.63000000E+01  1.14800000E+02  6.59000000E+01  4.70000000E+01  6.69000000E+01
  8.78000000E+01  6.57000000E+01  5.04000000E+01  5.04000000E+01  6.66000000E+01
  4.74000000E+01  6.88000000E+01  4.87000000E+01  6.66000000E+01  8.95000000E+01
  8.72000000E+01  5.07000000E+01  6.57000000E+01  4.74000000E+01  8.53000000E+01
  8.53000000E+01  6.24000000E+01  6.52000000E+01  4.68000000E+01  8.46000000E+01
  6.53000000E+01  4.69000000E+01  6.56000000E+01  4.73000000E+01  4.75000000E+01
  1.18800000E+02  3.90000000E+01
%FLAG ANGLE_EQUIL_VALUE                                                         
%FORMAT(5E16.8)                                                                 
  2.15024656E+00  2.15111922E+00  2.20627165E+00  2.03261132E+00  2.02423373E+00
  1.93609457E+00  2.22564482E+00  2.06332913E+00  2.06332913E+00  2.10870771E+00
  2.00939843E+00  2.09474507E+00  2.09230160E+00  2.10870771E+00  2.15129376E+00
  2.09265067E+00  1.89507931E+00  2.22564482E+00  2.00939843E+00  1.88443280E+00
  1.90607489E+00  1.91602327E+00  1.95599133E+00  1.91637234E+00  2.15024656E+00
  1.93801443E+00  1.91218355E+00  2.10783504E+00  1.92806605E+00  1.88879613E+00
  2.27329233E+00  1.87762601E+00
%FLAG DIHEDRAL_FORCE_CONSTANT                                                   
%FORMAT(5E16.8)                                                                 
  2.17500000E+00  1.40000000E+00  2.70000000E+00  6.65000000E+00  8.00000000E-01
  3.83000000E-01  3.83333333E-01  5.05000000E-01  3.62500000E+00  7.00000000E-01
  8.35000000E-01  8.51000000E+00  1.55555556E-01  2.50000000E-01  0.00000000E+00
  8.00000000E-02  6.30000000E-01  1.00000000E+00  2.45000000E-01  7.40000000E-01
  2.70000000E-01  5.50000000E-01  1.00000000E-01  0.00000000E+00  8.00000000E-01
  8.00000000E-02  1.05000000E+01  1.10000000E+00
%FLAG DIHEDRAL_PERIODICITY                                                      
%FORMAT(5E16.8)                                                                 
  2.00000000E+00  1.00000000E+00  2.00000000E+00  2.00000000E+00  1.00000000E+00
  3.00000000E+00  3.00000000E+00  2.00000000E+00  2.00000000E+00  2.00000000E+00
  2.00000000E+00  2.00000000E+00  3.00000000E+00  1.00000000E+00  3.00000000E+00
  1.00000000E+00  2.00000000E+00  3.00000000E+00  2.00000000E+00  1.00000000E+00
  2.00000000E+00  3.00000000E+00  3.00000000E+00  2.00000000E+00  1.00000000E+00
  3.00000000E+00  2.00000000E+00  2.00000000E+00
%FLAG DIHEDRAL_PHASE                                                            
%FORMAT(5E16.8)                                                                 
  3.14159400E+00  3.14159400E+00  3.14159400E+00  3.14159400E+00  3.14159400E+00
  0.00000000E+00  0.00000000E+00  3.14159400E+00  3.14159400E+00  3.14159400E+00
  3.14159400E+00  3.14159400E+00  0.00000000E+00  0.00000000E+00  0.00000000E+00
  0.00000000E+00  3.14159400E+00  3.14159400E+00  3.14159400E+00  0.00000000E+00
  3.14159400E+00  3.14159400E+00  0.00000000E+00  3.14159400E+00  0.00000000E+00
  3.14159400E+00  3.14159400E+00  3.14159400E+00
%FLAG SCEE_SCALE_FACTOR                                                         
%FORMAT(5E16.8)                                                                 
  1.20000000E+00  1.20000000E+00  1.20000000E+00  1.20000000E+00  1.20000000E+00
  1.20000000E+00  1.20000000E+00  1.20000000E+00  1.20000000E+00  1.20000000E+00
  1.20000000E+00  1.20000000E+00  1.20000000E+00  1.20000000E+00  1.20000000E+00
  1.20000000E+00  1.20000000E+00  1.20000000E+00  1.20000000E+00  1.20000000E+00
  1.20000000E+00  1.20000000E+00  1.20000000E+00  1.20000000E+00  1.20000000E+00
  1.20000000E+00  0.00000000E+00  0.00000000E+00
%FLAG SCNB_SCALE_FACTOR                                                         
%FORMAT(5E16.8)                                                                 
  2.00000000E+00  2.00000000E+00  2.00000000E+00  2.00000000E+00  2.00000000E+00
  2.00000000E+00  2.00000000E+00  2.00000000E+00  2.00000000E+00  2.00000000E+00
  2.00000000E+00  2.00000000E+00  2.00000000E+00  2.00000000E+00  2.00000000E+00
  2.00000000E+00  2.00000000E+00  2.00000000E+00  2.00000000E+00  2.00000000E+00
  2.00000000E+00  2.00000000E+00  2.00000000E+00  2.00000000E+00  2.00000000E+00
  2.00000000E+00  0.00000000E+00  0.00000000E+00
%FLAG SOLTY                                                                     
%FORMAT(5E16.8)                                                                 
  0.00000000E+00  0.00000000E+00  0.00000000E+00  0.00000000E+00  0.00000000E+00
  0.00000000E+00  0.00000000E+00  0.00000000E+00  0.00000000E+00  0.00000000E+00
  0.00000000E+00  0.00000000E+00
%FLAG LENNARD_JONES_ACOEF                                                       
%FORMAT(5E16.8)                                                                 
  3.76435470E+05  5.17507491E+05  6.96551276E+05  4.37717034E+05  5.92438683E+05
  5.03152404E+05  3.27367585E+05  4.46121722E+05  3.78207390E+05  2.83662575E+05
  6.30925504E+05  8.43969952E+05  7.18991463E+05  5.42502534E+05  1.02073671E+06
  5.27277400E+04  7.52549148E+04  6.30298721E+04  4.65732396E+04  9.27554496E+04
  6.90855956E+03  1.15813907E+02  2.25372434E+02  1.74176419E+02  1.16469347E+02
  3.03553352E+02  8.53132435E+00  1.10360882E-05  3.86646725E+04  5.63013422E+04
  4.69084694E+04  3.44374471E+04  6.97998263E+04  4.88692384E+03  4.36660257E+00
  3.39005767E+03  5.68021765E+04  8.12662403E+04  6.80216136E+04  5.02224902E+04
  1.00235148E+05  7.41026906E+03  8.80612241E+00  5.22955465E+03  7.94617769E+03
%FLAG LENNARD_JONES_BCOEF                                                       
%FORMAT(5E16.8)                                                                 
  4.69350655E+02  4.98871431E+02  5.24668528E+02  4.51916854E+02  4.76608379E+02
  4.32634597E+02  3.67361018E+02  3.88758656E+02  3.52573684E+02  2.87011518E+02
  5.62969425E+02  5.90251928E+02  5.36620538E+02  4.38146883E+02  6.63431737E+02
  1.01173582E+02  1.09570372E+02  9.87712192E+01  7.98066064E+01  1.24325688E+02
  2.10929191E+01  3.48534600E+00  4.40751799E+00  3.81654050E+00  2.93355636E+00
  5.22789272E+00  5.44840215E-01  4.55498033E-04  9.23664132E+01  1.01040256E+02
  9.08431526E+01  7.31636661E+01  1.14981426E+02  1.89134207E+01  4.15568027E-01
  1.67944276E+01  1.11953944E+02  1.21392023E+02  1.09393126E+02  8.83545880E+01
  1.37787728E+02  2.32899892E+01  5.90150328E-01  2.08590256E+01  2.57122925E+01
%FLAG BONDS_INC_HYDROGEN                                                        
%FORMAT(10I8)                                                                   
       6     108       5       9     111       7      15     114       9      18
     117       9      30     120      12      36     123       5      39     126
       7      45     129       9      48     132       9      60     135      12
      63     138       9      69     141      17      72     144      19      72
     147      19      78     150       9      81     153       9      93     156
      12      96     159       9
%FLAG BONDS_WITHOUT_HYDROGEN                                                    
%FORMAT(10I8)                                                                   
       0       3       1       3       6       2       3      66       3       6
       9       4       9      12       6      12      15       8      12      33
       8      15      18       8      18      21       8      21      24      10
      21      27       8      27      30      11      27      33       8      33
      36      13      36      39       4      39      42       6      42      45
       8      42      63       8      45      48       8      48      51       8
      51      54      10      51      57       8      57      60      11      57
      63       8      66      69      14      69      72      15      69      99
      16      72      75      18      75      78       8      75      96       8
      78      81       8      81      84       8      84      87      10      84
      90       8      90      93      11      90      96       8      99     102
       1      99     105       1
%FLAG ANGLES_INC_HYDROGEN                                                       
%FORMAT(10I8)                                                                   
       3       6     108       4       6       9     111       8       9       6
     108       9      12       9     111      11      12      15     114      13
      15      18     117      13      18      15     114      13      21      18
     117      13      27      30     120      17      33      36     123      19
      36      39     126       8      39      36     123       9      42      39
     126      11      42      45     129      13      42      63     138      13
      45      48     132      13      48      45     129      13      51      48
     132      13      57      60     135      17      57      63     138      13
      66      69     141      22      69      72     144      24      69      72
     147      24      72      69     141      27      75      72     144      29
      75      72     147      29      75      78     150      13      75      96
     159      13      78      81     153      13      81      78     150      13
      84      81     153      13      90      93     156      17      90      96
     159      13      99      69     141      30     144      72     147      32
%FLAG ANGLES_WITHOUT_HYDROGEN                                                   
%FORMAT(10I8)                                                                   
       0       3       6       1       0       3      66       2       3       6
       9       3       3      66      69       5       6       3      66       6
       6       9      12       7       9      12      15      10       9      12
      33      10      12      15      18      12      12      33      27      12
      12      33      36      14      15      12      33      12      15      18
      21      12      18      21      24      15      18      21      27      12
      21      27      30      16      21      27      33      12      24      21
      27      15      27      33      36      14      30      27      33      16
      33      36      39      18      36      39      42       7      39      42
      45      10      39      42      63      10      42      45      48      12
      42      63      57      12      45      42      63      12      45      48
      51      12      48      51      54      15      48      51      57      12
      51      57      60      16      51      57      63      12      54      51
      57      15      60      57      63      16      66      69      72      20
      66      69      99      21      69      72      75      23      69      99
     102      25      69      99     105      25      72      69      99      26
      72      75      78      28      72      75      96      28      75      78
      81      12      75      96      90      12      78      75      96      12
      78      81      84      12      81      84      87      15      81      84
      90      12      84      90      93      16      84      90      96      12
      87      84      90      15      93      90      96      16     102      99
     105      31
%FLAG DIHEDRALS_INC_HYDROGEN                                                    
%FORMAT(10I8)                                                                   
       0       3       6     108       1       3       6       9     111       4
       3      66      69     141       7       9      12      15     114       9
      12       9       6     108       4      12      15      18     117       9
      12      33      36     123      10      15      12       9     111      10
      21      18      15     114       9      21      27      30     120      11
      24      21      18     117       9      27      21      18     117       9
      27      33      36     123      10      33      27      30     120      11
      33      36      39     126       4      33      12       9     111      10
      33      12      15     114       9      39      42      45     129       9
      39      42      63     138       9      42      39      36     123       4
      42      45      48     132       9      45      42      39     126      10
      45      42      63     138       9      51      48      45     129       9
      51      57      60     135      11      51      57      63     138       9
      54      51      48     132       9      57      51      48     132       9
      60      57      63     138       9      63      57      60     135      11
      63      42      39     126      10      63      42      45     129       9
      66       3       6     108       1      66      69      72     144      14
      66      69     -72     144      15      66      69      72     147      14
      66      69     -72     147      15      72      75      78     150       9
      72      75      96     159       9      75      72      69     141      13
      75      78      81     153       9      78      75      72     144      24
      78      75      72     147      24      78      75      96     159       9
      84      81      78     150       9      84      90      93     156      11
      84      90      96     159       9      87      84      81     153       9
      90      84      81     153       9      93      90      96     159       9
      96      90      93     156      11      96      75      72     144      24
      96      75      72     147      24      96      75      78     150       9
      99      69      72     144      13      99      69      72     147      13
     102      99      69     141      25     102      99     -69     141      26
     105      99      69     141      25     105      99     -69     141      26
     108       6       9     111       4     114      15      18     117       9
     123      36      39     126       4     129      45      48     132       9
     141      69      72     144      13     141      69      72     147      13
     150      78      81     153       9       3       9      -6    -108      28
      12       6      -9    -111      28      12      18     -15    -114      28
      15      21     -18    -117      28      33      39     -36    -123      28
      42      36     -39    -126      28      42      48     -45    -129      28
      45      51     -48    -132      28      42      57     -63    -138      28
      75      81     -78    -150      28      78      84     -81    -153      28
      75      90     -96    -159      28
%FLAG DIHEDRALS_WITHOUT_HYDROGEN                                                
%FORMAT(10I8)                                                                   
       0       3       6       9       1       0       3      66      69       2
       0       3     -66      69       3       3       6       9      12       4
       3      66      69      72       5       3      66     -69      72       6
       3      66      69      99       7       6       3      66      69       3
       6       9      12      15       8       6       9      12      33       8
       9       6       3      66       1       9      12      15      18       9
       9      12      33      27       9       9      12      33      36       9
      12      15      18      21       9      12      33     -27      21       9
      12      33      27      30       9      12      33      36      39       8
      15      12      33      27       9      15      12      33      36       9
      15      18      21      24       9      15      18     -21      27       9
      18      15      12      33       9      18      21      27      30       9
      18      21     -27      33       9      21      27      33      36       9
      24      21      27      30       9      24      21      27      33       9
      27      33      36      39       8      30      27      33      36       9
      33      36      39      42      12      36      39      42      45       8
      36      39      42      63       8      39      42      45      48       9
      39      42      63      57       9      42      45      48      51       9
      42      63     -57      51       9      42      63      57      60       9
      45      42      63      57       9      45      48      51      54       9
      45      48     -51      57       9      48      45      42      63       9
      48      51      57      60       9      48      51     -57      63       9
      54      51      57      60       9      54      51      57      63       9
      66      69      72      75      13      66      69      99     102      16
      66      69     -99     102      17      66      69     -99     102      18
      66      69      99     105      16      66      69     -99     105      17
      66      69     -99     105      18      69      72      75      78      19
      69      72      75      96      19      72      69      99     102      20
      72      69     -99     102      21      72      69     -99     102      22
      72      69      99     105      20      72      69     -99     105      21
      72      69     -99     105      22      72      75      78      81       9
      72      75      96      90       9      75      72      69      99      23
      75      78      81      84       9      75      96     -90      84       9
      75      96      90      93       9      78      75      96      90       9
      78      81      84      87       9      78      81     -84      90       9
      81      78      75      96       9      81      84      90      93       9
      81      84     -90      96       9      87      84      90      93       9
      87      84      90      96       9       6       0      -3     -66      27
      15      33     -12      -9      28      18      27     -21     -24      28
      21      33     -27     -30      28      12      27     -33     -36      28
      45      63     -42     -39      28      48      57     -51     -54      28
      51      63     -57     -60      28      78      96     -75     -72      28
      81      90     -84     -87      28      84      96     -90     -93      28
      69     102     -99    -105      28
%FLAG EXCLUDED_ATOMS_LIST                                                       
%FORMAT(10I8)                                                                   
       2       3       4      23      24      37       3       4       5      23
      24      25      34      37      38      48       4       5       6      12
      23      24      37      38       5       6       7      10      12      13
      23      37      38      39       6       7       8      10      11      12
      13      14      37      38      39      40      42       7       8       9
      10      12      13      38      39      40       8       9      10      11
      12      39      40       9      10      11      12      13      39      40
      41      10      11      12      40      11      12      13      14      40
      41      42      12      13      41      13      14      15      38      39
      41      42      43      14      15      16      22      42      43      15
      16      17      20      22      42      43      44      47      16      17
      18      20      21      22      42      43      44      45      47      17
      18      19      20      22      43      44      45      47      18      19
      20      21      22      44      45      19      20      21      22      44
      45      46      47      20      21      22      45      21      22      45
      46      47      22      46      47      43      44      46      47      24
      25      26      34      35      36      37      48      49      50      25
      26      27      33      34      35      36      48      49      50      26
      27      28      31      33      34      35      36      48      49      50
      51      54      27      28      29      31      32      33      34      48
      49      50      51      52      54      28      29      30      31      33
      49      50      51      52      54      29      30      31      32      33
      51      52      30      31      32      33      51      52      53      54
      31      32      33      52      32      33      52      53      54      33
      53      54      49      50      51      53      54      35      36      48
      49      50      36      48      48      38       0      40       0       0
      43       0      45       0       0       0      49      50      50       0
      52       0       0       0
%FLAG HBOND_ACOEF                                                               
%FORMAT(5E16.8)                                                                 

%FLAG HBOND_BCOEF                                                               
%FORMAT(5E16.8)                                                                 

%FLAG HBCUT                                                                     
%FORMAT(5E16.8)                                                                 

%FLAG AMBER_ATOM_TYPE                                                           
%FORMAT(20a4)                                                                   
o   c   ce  cf  ca  ca  ca  ca  o   ca  oh  ca  ce  cf  ca  ca  ca  ca  o   ca  
oh  ca  os  c3  c3  ca  ca  ca  ca  o   ca  oh  ca  c   o   o   ha  ha  ha  ha  
ho  ha  ha  ha  ha  ho  ha  h1  hc  hc  ha  ha  ho  ha  
%FLAG TREE_CHAIN_CLASSIFICATION                                                 
%FORMAT(20a4)                                                                   
BLA BLA BLA BLA BLA BLA BLA BLA BLA BLA BLA BLA BLA BLA BLA BLA BLA BLA BLA BLA 
BLA BLA BLA BLA BLA BLA BLA BLA BLA BLA BLA BLA BLA BLA BLA BLA BLA BLA BLA BLA 
BLA BLA BLA BLA BLA BLA BLA BLA BLA BLA BLA BLA BLA BLA 
%FLAG JOIN_ARRAY                                                                
%FORMAT(10I8)                                                                   
       0       0       0       0       0       0       0       0       0       0
       0       0       0       0       0       0       0       0       0       0
       0       0       0       0       0       0       0       0       0       0
       0       0       0       0       0       0       0       0       0       0
       0       0       0       0       0       0       0       0       0       0
       0       0       0       0
%FLAG IROTAT                                                                    
%FORMAT(10I8)                                                                   
       0       0       0       0       0       0       0       0       0       0
       0       0       0       0       0       0       0       0       0       0
       0       0       0       0       0       0       0       0       0       0
       0       0       0       0       0       0       0       0       0       0
       0       0       0       0       0       0       0       0       0       0
       0       0       0       0
%FLAG RADIUS_SET                                                                
%FORMAT(1a80)                                                                   
modified Bondi radii (mbondi)                                                   
%FLAG RADII                                                                     
%FORMAT(5E16.8)                                                                 
  1.50000000E+00  1.70000000E+00  1.70000000E+00  1.70000000E+00  1.70000000E+00
  1.70000000E+00  1.70000000E+00  1.70000000E+00  1.50000000E+00  1.70000000E+00
  1.50000000E+00  1.70000000E+00  1.70000000E+00  1.70000000E+00  1.70000000E+00
  1.70000000E+00  1.70000000E+00  1.70000000E+00  1.50000000E+00  1.70000000E+00
  1.50000000E+00  1.70000000E+00  1.50000000E+00  1.70000000E+00  1.70000000E+00
  1.70000000E+00  1.70000000E+00  1.70000000E+00  1.70000000E+00  1.50000000E+00
  1.70000000E+00  1.50000000E+00  1.70000000E+00  1.70000000E+00  1.50000000E+00
  1.50000000E+00  1.30000000E+00  1.30000000E+00  1.30000000E+00  1.30000000E+00
  8.00000000E-01  1.30000000E+00  1.30000000E+00  1.30000000E+00  1.30000000E+00
  8.00000000E-01  1.30000000E+00  1.30000000E+00  1.30000000E+00  1.30000000E+00
  1.30000000E+00  1.30000000E+00  8.00000000E-01  1.30000000E+00
%FLAG SCREEN                                                                    
%FORMAT(5E16.8)                                                                 
  8.50000000E-01  7.20000000E-01  7.20000000E-01  7.20000000E-01  7.20000000E-01
  7.20000000E-01  7.20000000E-01  7.20000000E-01  8.50000000E-01  7.20000000E-01
  8.50000000E-01  7.20000000E-01  7.20000000E-01  7.20000000E-01  7.20000000E-01
  7.20000000E-01  7.20000000E-01  7.20000000E-01  8.50000000E-01  7.20000000E-01
  8.50000000E-01  7.20000000E-01  8.50000000E-01  7.20000000E-01  7.20000000E-01
  7.20000000E-01  7.20000000E-01  7.20000000E-01  7.20000000E-01  8.50000000E-01
  7.20000000E-01  8.50000000E-01  7.20000000E-01  7.20000000E-01  8.50000000E-01
  8.50000000E-01  8.50000000E-01  8.50000000E-01  8.50000000E-01  8.50000000E-01
  8.50000000E-01  8.50000000E-01  8.50000000E-01  8.50000000E-01  8.50000000E-01
  8.50000000E-01  8.50000000E-01  8.50000000E-01  8.50000000E-01  8.50000000E-01
  8.50000000E-01  8.50000000E-01  8.50000000E-01  8.50000000E-01
%FLAG IPOL                                                                      
%FORMAT(1I8)                                                                    
       0
