MOL
    21
  -1.6930000  -1.2160000  -0.4570000  -0.3730000  -0.5690000  -0.8420000
   0.0230000   0.4510000   0.2240000   0.7070000  -1.6500000  -0.8920000
  -0.4480000   0.0850000  -2.2470000  -1.4500000   1.2450000  -2.3740000
  -1.0330000   2.3640000  -1.6010000  -2.4510000  -0.4380000  -0.3360000
  -1.5550000  -1.7470000   0.4890000  -1.9810000  -1.9140000  -1.2480000
  -0.8250000   1.1090000   0.4250000   0.8940000   1.0080000  -0.1320000
   0.2730000  -0.0940000   1.1410000   0.7640000  -2.1330000   0.0890000
   1.6610000  -1.1760000  -1.1390000   0.4290000  -2.3800000  -1.6580000
   0.5640000   0.4420000  -2.4700000  -0.7110000  -0.7150000  -2.9490000
  -2.4590000   0.9560000  -2.0680000  -1.4920000   1.5620000  -3.4210000
  -1.6060000   3.1190000  -1.8430000
