%VERSION  VERSION_STAMP = V0001.000  DATE = 07/10/26  11:38:07                  
%FLAG TITLE                                                                     
%FORMAT(20a4)                                                                   
MOL                                                                             
%FLAG POINTERS                                                                  
%FORMAT(10I8)                                                                   
     149      10      81      72     189     102     333     258       0       0
     880       1      72     102     258      22      54      58      13       0
       0       0       0       0       0       0       0       0     149       0
       0
%FLAG ATOM_NAME                                                                 
%FORMAT(20a4)                                                                   
C1  O1  C2  C3  C4  C5  C6  C7  C8  C9  O2  O3  C10 O4  C11 O5  N1  C12 C13 C14 
C15 C16 C17 O6  O7  C18 C19 C20 O8  C21 C22 C23 C24 C25 C26 O9  C27 O10 C28 C29 
O11 C30 C31 C32 C33 C34 C35 C36 C37 C38 C39 C40 C41 C42 C43 C44 C45 C46 C47 C48 
O12 C49 C50 O13 C51 O14 C52 C53 H1  H2  H3  H4  H5  H6  H7  H8  H9  H10 H11 H12 
H13 H14 H15 H16 H17 H18 H19 H20 H21 H22 H23 H24 H25 H26 H27 H28 H29 H30 H31 H32 
H33 H34 H35 H36 H37 H38 H39 H40 H41 H42 H43 H44 H45 H46 H47 H48 H49 H50 H51 H52 
H53 H54 H55 H56 H57 H58 H59 H60 H61 H62 H63 H64 H65 H66 H67 H68 H69 H70 H71 H72 
H73 H74 H75 H76 H77 H78 H79 H80 H81 
%FLAG CHARGE                                                                    
%FORMAT(5E16.8)                                                                 
  2.05365321E+00 -7.66429938E+00  3.23081379E+00 -1.30107222E+00  2.80805643E+00
 -1.95707502E+00 -1.41040602E+00 -1.05142671E+00 -1.73294073E+00  5.11317738E+00
 -1.09661801E+01 -8.46608058E+00  9.18586143E+00 -8.42052483E+00  1.08987576E+01
 -1.10992029E+01 -7.90483374E+00  1.64000700E+00 -1.73840742E+00 -1.46507292E+00
 -1.17898281E+00  4.68313110E-01  1.26754319E+01 -1.02318214E+01 -7.46932077E+00
  2.60761113E+00 -3.88863882E+00  1.06618677E+01 -9.71430813E+00 -2.14112025E+00
 -1.62360693E+00 -3.39299226E+00 -1.82951892E+00 -1.51062867E+00  2.68414479E+00
 -1.11848477E+01  9.12937230E-01 -7.37274258E+00  1.99898631E+00  1.06254231E+01
 -9.67786353E+00 -2.72787831E+00 -1.78760763E+00 -1.41040602E+00 -1.26462762E+00
 -6.46891650E-01 -1.67827383E+00 -2.71876716E+00 -2.64223350E+00 -2.20489830E+00
 -2.44178820E+00 -2.25956520E+00 -2.68596702E+00 -1.12796037E+00 -1.72565181E+00
 -1.30107222E+00 -1.17898281E+00 -1.39218372E+00 -1.73840742E+00  2.48005503E+00
 -7.60963248E+00  1.70196282E+00  1.70196282E+00 -1.08568463E+01  2.55294423E+00
 -7.84652238E+00  2.09009781E+00 -1.82951892E+00  6.74826436E-01  6.74826436E-01
  6.74826436E-01  8.14536810E-01  1.14253821E+00  1.14253821E+00  1.47053961E+00
  9.32981760E-01  9.32981760E-01  1.01498211E+00  1.01498211E+00  1.16076051E+00
  9.05648310E-01  9.05648310E-01  9.05648310E-01  8.07247890E+00  1.20631626E+00
  1.20631626E+00  1.03320441E+00  1.03320441E+00  9.78537510E-01  9.78537510E-01
  1.23364971E+00  1.99898631E+00  2.07187551E+00  1.56165111E+00  1.56165111E+00
  1.19720511E+00  8.63135684E-01  8.63135684E-01  8.63135684E-01  2.35067670E+00
  1.09393934E+00  1.09393934E+00  1.09393934E+00  1.34298351E+00  7.47114300E+00
  1.47053961E+00  7.53801884E-01  7.53801884E-01  7.53801884E-01  1.37942811E+00
  9.72469484E-01  9.72469484E-01  9.72469484E-01  8.14536810E-01  8.14536810E-01
  8.69203710E-01  8.69203710E-01  9.96759810E-01  6.93048736E-01  6.93048736E-01
  6.93048736E-01  2.15023140E+00  2.35067670E+00  2.33245440E+00  2.20489830E+00
  2.55112200E+00  8.32759110E-01  8.32759110E-01  8.32759110E-01  1.34298351E+00
  8.87426010E-01  8.87426010E-01  1.19720511E+00  8.60092560E-01  8.60092560E-01
  8.50981410E-01  8.50981410E-01  1.14253821E+00  9.05648310E-01  9.05648310E-01
  1.05142671E+00  1.05142671E+00  7.21603080E+00  1.25187201E+00  6.68758410E-01
  6.68758410E-01  6.68758410E-01  1.05142671E+00  1.05142671E+00
%FLAG ATOMIC_NUMBER                                                             
%FORMAT(10I8)                                                                   
       6       8       6       6       6       6       6       6       6       6
       8       8       6       8       6       8       7       6       6       6
       6       6       6       8       8       6       6       6       8       6
       6       6       6       6       6       8       6       8       6       6
       8       6       6       6       6       6       6       6       6       6
       6       6       6       6       6       6       6       6       6       6
       8       6       6       8       6       8       6       6       1       1
       1       1       1       1       1       1       1       1       1       1
       1       1       1       1       1       1       1       1       1       1
       1       1       1       1       1       1       1       1       1       1
       1       1       1       1       1       1       1       1       1       1
       1       1       1       1       1       1       1       1       1       1
       1       1       1       1       1       1       1       1       1       1
       1       1       1       1       1       1       1       1       1       1
       1       1       1       1       1       1       1       1       1
%FLAG MASS                                                                      
%FORMAT(5E16.8)                                                                 
  1.20100000E+01  1.60000000E+01  1.20100000E+01  1.20100000E+01  1.20100000E+01
  1.20100000E+01  1.20100000E+01  1.20100000E+01  1.20100000E+01  1.20100000E+01
  1.60000000E+01  1.60000000E+01  1.20100000E+01  1.60000000E+01  1.20100000E+01
  1.60000000E+01  1.40100000E+01  1.20100000E+01  1.20100000E+01  1.20100000E+01
  1.20100000E+01  1.20100000E+01  1.20100000E+01  1.60000000E+01  1.60000000E+01
  1.20100000E+01  1.20100000E+01  1.20100000E+01  1.60000000E+01  1.20100000E+01
  1.20100000E+01  1.20100000E+01  1.20100000E+01  1.20100000E+01  1.20100000E+01
  1.60000000E+01  1.20100000E+01  1.60000000E+01  1.20100000E+01  1.20100000E+01
  1.60000000E+01  1.20100000E+01  1.20100000E+01  1.20100000E+01  1.20100000E+01
  1.20100000E+01  1.20100000E+01  1.20100000E+01  1.20100000E+01  1.20100000E+01
  1.20100000E+01  1.20100000E+01  1.20100000E+01  1.20100000E+01  1.20100000E+01
  1.20100000E+01  1.20100000E+01  1.20100000E+01  1.20100000E+01  1.20100000E+01
  1.60000000E+01  1.20100000E+01  1.20100000E+01  1.60000000E+01  1.20100000E+01
  1.60000000E+01  1.20100000E+01  1.20100000E+01  1.00800000E+00  1.00800000E+00
  1.00800000E+00  1.00800000E+00  1.00800000E+00  1.00800000E+00  1.00800000E+00
  1.00800000E+00  1.00800000E+00  1.00800000E+00  1.00800000E+00  1.00800000E+00
  1.00800000E+00  1.00800000E+00  1.00800000E+00  1.00800000E+00  1.00800000E+00
  1.00800000E+00  1.00800000E+00  1.00800000E+00  1.00800000E+00  1.00800000E+00
  1.00800000E+00  1.00800000E+00  1.00800000E+00  1.00800000E+00  1.00800000E+00
  1.00800000E+00  1.00800000E+00  1.00800000E+00  1.00800000E+00  1.00800000E+00
  1.00800000E+00  1.00800000E+00  1.00800000E+00  1.00800000E+00  1.00800000E+00
  1.00800000E+00  1.00800000E+00  1.00800000E+00  1.00800000E+00  1.00800000E+00
  1.00800000E+00  1.00800000E+00  1.00800000E+00  1.00800000E+00  1.00800000E+00
  1.00800000E+00  1.00800000E+00  1.00800000E+00  1.00800000E+00  1.00800000E+00
  1.00800000E+00  1.00800000E+00  1.00800000E+00  1.00800000E+00  1.00800000E+00
  1.00800000E+00  1.00800000E+00  1.00800000E+00  1.00800000E+00  1.00800000E+00
  1.00800000E+00  1.00800000E+00  1.00800000E+00  1.00800000E+00  1.00800000E+00
  1.00800000E+00  1.00800000E+00  1.00800000E+00  1.00800000E+00  1.00800000E+00
  1.00800000E+00  1.00800000E+00  1.00800000E+00  1.00800000E+00  1.00800000E+00
  1.00800000E+00  1.00800000E+00  1.00800000E+00  1.00800000E+00
%FLAG ATOM_TYPE_INDEX                                                           
%FORMAT(10I8)                                                                   
       1       2       1       1       1       1       1       1       1       1
       3       2       4       5       4       5       6       1       1       1
       1       1       4       5       2       1       1       4       5       1
       1       4       4       1       1       3       1       2       1       4
       5       1       1       1       1       1       1       4       4       4
       4       4       4       1       1       1       1       1       1       1
       2       1       1       3       1       2       1       1       7       7
       7       7       8       8       7       8       8       8       8       8
       8       8       8       9       7       7       8       8       8       8
       8       7       7       8       8       8       8       8       8      10
       8       8       8       7       9       7       7       7       7       8
       8       8       8       8       8       8       8       8       8       8
       8      10      10      10      10      10       8       8       8       8
       8       8       8       8       8       8       8       7       7       7
       7       7       9       7       7       7       7       8       8
%FLAG NUMBER_EXCLUDED_ATOMS                                                     
%FORMAT(10I8)                                                                   
       8      12      19      14      16      13      15      16      10      15
       6      10       8       3      10       3      15      12      11      15
      19      13       8       3      10      14      12      14       6      12
       7      14      14       8      14       6      14       9       5      13
       5      13       8      13      14      14       9      12       8       8
       7       9       9       5      15      15      17      15      13      17
      14       9       6       5      13       9       5       9       2       1
       1       2       2       1       2       3       2       2       1       3
       2       1       1       1       3       2       3       2       2       1
       2       1       3       1       1       4       2       1       1       1
       2       1       1       2       1       1       2       1       1       5
       2       1       1       3       2       2       1       4       2       1
       1       1       1       1       1       1       2       1       1       2
       2       1       4       3       2       2       1       1       3       2
       2       1       1       2       2       1       1       1       1
%FLAG NONBONDED_PARM_INDEX                                                      
%FORMAT(10I8)                                                                   
       1       2       4       7      11      16      22      29      37      46
       2       3       5       8      12      17      23      30      38      47
       4       5       6       9      13      18      24      31      39      48
       7       8       9      10      14      19      25      32      40      49
      11      12      13      14      15      20      26      33      41      50
      16      17      18      19      20      21      27      34      42      51
      22      23      24      25      26      27      28      35      43      52
      29      30      31      32      33      34      35      36      44      53
      37      38      39      40      41      42      43      44      45      54
      46      47      48      49      50      51      52      53      54      55
%FLAG RESIDUE_LABEL                                                             
%FORMAT(20a4)                                                                   
MOL 
%FLAG RESIDUE_POINTER                                                           
%FORMAT(10I8)                                                                   
       1
%FLAG BOND_FORCE_CONSTANT                                                       
%FORMAT(5E16.8)                                                                 
  2.84800000E+02  3.75900000E+02  2.32500000E+02  2.55600000E+02  3.75900000E+02
  2.93400000E+02  2.43200000E+02  5.63500000E+02  6.52600000E+02  2.24400000E+02
  3.56200000E+02  2.63800000E+02  3.72900000E+02  4.81800000E+02  3.92200000E+02
  4.60500000E+02  3.06100000E+02  3.91400000E+02  4.52200000E+02  3.06100000E+02
  3.91400000E+02  4.60500000E+02
%FLAG BOND_EQUIL_VALUE                                                          
%FORMAT(5E16.8)                                                                 
  1.43200000E+00  1.09700000E+00  1.53800000E+00  1.51000000E+00  1.09700000E+00
  1.42300000E+00  1.52400000E+00  9.73000000E-01  1.21800000E+00  1.54800000E+00
  1.37900000E+00  1.46200000E+00  1.35800000E+00  1.33400000E+00  1.08800000E+00
  1.34600000E+00  1.45700000E+00  1.08800000E+00  1.35100000E+00  1.45700000E+00
  1.08800000E+00  1.34600000E+00
%FLAG ANGLE_FORCE_CONSTANT                                                      
%FORMAT(5E16.8)                                                                 
  6.63000000E+01  6.24000000E+01  8.53000000E+01  8.60000000E+01  6.49000000E+01
  4.68000000E+01  6.61000000E+01  6.49000000E+01  6.55000000E+01  4.69000000E+01
  8.46000000E+01  6.53000000E+01  4.90000000E+01  8.46000000E+01  6.36000000E+01
  1.10700000E+02  8.56000000E+01  8.53000000E+01  8.43000000E+01  8.43000000E+01
  6.53000000E+01  1.13800000E+02  8.32000000E+01  6.15000000E+01  8.45000000E+01
  6.49000000E+01  8.64000000E+01  4.75000000E+01  6.69000000E+01  1.14800000E+02
  6.40000000E+01  4.74000000E+01  6.58000000E+01  6.61000000E+01  4.64000000E+01
  4.75000000E+01  5.04000000E+01  8.55000000E+01  4.76000000E+01  6.25000000E+01
  6.61000000E+01  6.75000000E+01  5.01000000E+01  5.00000000E+01  6.71000000E+01
  4.77000000E+01  6.71000000E+01  5.04000000E+01  5.04000000E+01  6.75000000E+01
  4.77000000E+01  5.01000000E+01  3.88000000E+01  3.90000000E+01
%FLAG ANGLE_EQUIL_VALUE                                                         
%FORMAT(5E16.8)                                                                 
  1.96314718E+00  1.91602327E+00  1.88443280E+00  1.89473025E+00  1.94621748E+00
  1.91637234E+00  2.14937390E+00  2.01847415E+00  1.94709015E+00  1.91218355E+00
  1.92317913E+00  1.93801443E+00  1.87204096E+00  2.15024656E+00  2.02754986E+00
  1.90904195E+00  1.89874451E+00  1.90607489E+00  2.10923131E+00  1.96768504E+00
  2.10643878E+00  2.14762857E+00  1.94796281E+00  1.90031530E+00  1.90345690E+00
  2.01829961E+00  1.93242938E+00  1.88879613E+00  2.02423373E+00  2.15111922E+00
  2.03330945E+00  1.89839544E+00  1.94307589E+00  2.15775148E+00  2.01899774E+00
  1.92614619E+00  2.10190092E+00  1.92597166E+00  1.91916487E+00  1.92440086E+00
  2.14937390E+00  2.15129376E+00  2.09334880E+00  2.10224999E+00  2.16839799E+00
  2.03592745E+00  2.16839799E+00  2.06332913E+00  2.06332913E+00  2.15129376E+00
  2.03592745E+00  2.09334880E+00  1.89298492E+00  1.87762601E+00
%FLAG DIHEDRAL_FORCE_CONSTANT                                                   
%FORMAT(5E16.8)                                                                 
  0.00000000E+00  1.60000000E-01  2.40000000E-01  3.83333333E-01  3.37000000E-01
  1.55555556E-01  2.50000000E-01  0.00000000E+00  0.00000000E+00  1.10000000E-01
  2.90000000E-01  1.30000000E-01  6.65000000E+00  3.10000000E-01  8.00000000E-02
  2.10000000E-01  1.00000000E-01  7.40000000E-01  2.70000000E-01  5.50000000E-01
  0.00000000E+00  3.00000000E-01  5.10000000E-01  1.80000000E-01  1.66666667E-01
  8.00000000E-02  6.30000000E-01  1.00000000E+00  2.50000000E+00  1.02000000E+00
  1.70000000E-01  1.00000000E-01  6.40000000E-01  3.90000000E-01  1.58000000E+00
  3.18000000E+00  7.30000000E-01  8.00000000E-01  3.83000000E-01  8.00000000E-01
  8.00000000E-02  1.40000000E+00  2.70000000E+00  3.32000000E-01  8.30000000E-01
  4.00000000E-02  4.00000000E-01  5.29000000E+00  1.47000000E+00  3.60000000E-01
  2.00000000E-02  1.01000000E+00  1.00000000E+00  1.70000000E-01  1.20000000E-01
  1.13000000E-01  1.05000000E+01  1.10000000E+00
%FLAG DIHEDRAL_PERIODICITY                                                      
%FORMAT(5E16.8)                                                                 
  1.00000000E+00  2.00000000E+00  3.00000000E+00  3.00000000E+00  3.00000000E+00
  3.00000000E+00  1.00000000E+00  3.00000000E+00  2.00000000E+00  1.00000000E+00
  2.00000000E+00  3.00000000E+00  2.00000000E+00  2.00000000E+00  3.00000000E+00
  3.00000000E+00  3.00000000E+00  1.00000000E+00  2.00000000E+00  3.00000000E+00
  2.00000000E+00  2.00000000E+00  1.00000000E+00  3.00000000E+00  3.00000000E+00
  1.00000000E+00  2.00000000E+00  3.00000000E+00  2.00000000E+00  1.00000000E+00
  3.00000000E+00  4.00000000E+00  1.00000000E+00  2.00000000E+00  1.00000000E+00
  2.00000000E+00  3.00000000E+00  1.00000000E+00  3.00000000E+00  1.00000000E+00
  3.00000000E+00  1.00000000E+00  2.00000000E+00  2.00000000E+00  1.00000000E+00
  3.00000000E+00  1.00000000E+00  2.00000000E+00  1.00000000E+00  3.00000000E+00
  1.00000000E+00  3.00000000E+00  2.00000000E+00  1.00000000E+00  3.00000000E+00
  3.00000000E+00  2.00000000E+00  2.00000000E+00
%FLAG DIHEDRAL_PHASE                                                            
%FORMAT(5E16.8)                                                                 
  0.00000000E+00  0.00000000E+00  0.00000000E+00  0.00000000E+00  0.00000000E+00
  0.00000000E+00  0.00000000E+00  0.00000000E+00  0.00000000E+00  0.00000000E+00
  3.14159400E+00  0.00000000E+00  3.14159400E+00  0.00000000E+00  0.00000000E+00
  0.00000000E+00  0.00000000E+00  0.00000000E+00  3.14159400E+00  3.14159400E+00
  3.14159400E+00  3.14159400E+00  0.00000000E+00  0.00000000E+00  0.00000000E+00
  0.00000000E+00  3.14159400E+00  3.14159400E+00  3.14159400E+00  3.14159400E+00
  0.00000000E+00  3.14159400E+00  0.00000000E+00  3.14159400E+00  3.14159400E+00
  3.14159400E+00  0.00000000E+00  3.14159400E+00  0.00000000E+00  0.00000000E+00
  3.14159400E+00  3.14159400E+00  3.14159400E+00  3.14159400E+00  0.00000000E+00
  3.14159400E+00  3.14159400E+00  3.14159400E+00  0.00000000E+00  3.14159400E+00
  3.14159400E+00  0.00000000E+00  3.14159400E+00  3.14159400E+00  0.00000000E+00
  0.00000000E+00  3.14159400E+00  3.14159400E+00
%FLAG SCEE_SCALE_FACTOR                                                         
%FORMAT(5E16.8)                                                                 
  1.20000000E+00  1.20000000E+00  1.20000000E+00  1.20000000E+00  1.20000000E+00
  1.20000000E+00  1.20000000E+00  1.20000000E+00  1.20000000E+00  1.20000000E+00
  1.20000000E+00  1.20000000E+00  1.20000000E+00  1.20000000E+00  1.20000000E+00
  1.20000000E+00  1.20000000E+00  1.20000000E+00  1.20000000E+00  1.20000000E+00
  1.20000000E+00  1.20000000E+00  1.20000000E+00  1.20000000E+00  1.20000000E+00
  1.20000000E+00  1.20000000E+00  1.20000000E+00  1.20000000E+00  1.20000000E+00
  1.20000000E+00  1.20000000E+00  1.20000000E+00  1.20000000E+00  1.20000000E+00
  1.20000000E+00  1.20000000E+00  1.20000000E+00  1.20000000E+00  1.20000000E+00
  1.20000000E+00  1.20000000E+00  1.20000000E+00  1.20000000E+00  1.20000000E+00
  1.20000000E+00  1.20000000E+00  1.20000000E+00  1.20000000E+00  1.20000000E+00
  1.20000000E+00  1.20000000E+00  1.20000000E+00  1.20000000E+00  1.20000000E+00
  1.20000000E+00  0.00000000E+00  0.00000000E+00
%FLAG SCNB_SCALE_FACTOR                                                         
%FORMAT(5E16.8)                                                                 
  2.00000000E+00  2.00000000E+00  2.00000000E+00  2.00000000E+00  2.00000000E+00
  2.00000000E+00  2.00000000E+00  2.00000000E+00  2.00000000E+00  2.00000000E+00
  2.00000000E+00  2.00000000E+00  2.00000000E+00  2.00000000E+00  2.00000000E+00
  2.00000000E+00  2.00000000E+00  2.00000000E+00  2.00000000E+00  2.00000000E+00
  2.00000000E+00  2.00000000E+00  2.00000000E+00  2.00000000E+00  2.00000000E+00
  2.00000000E+00  2.00000000E+00  2.00000000E+00  2.00000000E+00  2.00000000E+00
  2.00000000E+00  2.00000000E+00  2.00000000E+00  2.00000000E+00  2.00000000E+00
  2.00000000E+00  2.00000000E+00  2.00000000E+00  2.00000000E+00  2.00000000E+00
  2.00000000E+00  2.00000000E+00  2.00000000E+00  2.00000000E+00  2.00000000E+00
  2.00000000E+00  2.00000000E+00  2.00000000E+00  2.00000000E+00  2.00000000E+00
  2.00000000E+00  2.00000000E+00  2.00000000E+00  2.00000000E+00  2.00000000E+00
  2.00000000E+00  0.00000000E+00  0.00000000E+00
%FLAG SOLTY                                                                     
%FORMAT(5E16.8)                                                                 
  0.00000000E+00  0.00000000E+00  0.00000000E+00  0.00000000E+00  0.00000000E+00
  0.00000000E+00  0.00000000E+00  0.00000000E+00  0.00000000E+00  0.00000000E+00
  0.00000000E+00  0.00000000E+00  0.00000000E+00
%FLAG LENNARD_JONES_ACOEF                                                       
%FORMAT(5E16.8)                                                                 
  1.02073671E+06  5.42502534E+05  2.83662575E+05  7.18991463E+05  3.78207390E+05
  5.03152404E+05  8.43969952E+05  4.46121722E+05  5.92438683E+05  6.96551276E+05
  6.30925504E+05  3.27367585E+05  4.37717034E+05  5.17507491E+05  3.76435470E+05
  8.52084164E+05  4.46307018E+05  5.94682930E+05  7.01106848E+05  5.15491878E+05
  7.02078680E+05  6.97998263E+04  3.44374471E+04  4.69084694E+04  5.63013422E+04
  3.86646725E+04  5.45183252E+04  3.39005767E+03  1.00235148E+05  5.02224902E+04
  6.80216136E+04  8.12662403E+04  5.68021765E+04  7.93773615E+04  5.22955465E+03
  7.94617769E+03  3.03553352E+02  1.16469347E+02  1.74176419E+02  2.25372434E+02
  1.15813907E+02  1.89434762E+02  4.36660257E+00  8.80612241E+00  1.10360882E-05
  9.27554496E+04  4.65732396E+04  6.30298721E+04  7.52549148E+04  5.27277400E+04
  7.35931098E+04  4.88692384E+03  7.41026906E+03  8.53132435E+00  6.90855956E+03
%FLAG LENNARD_JONES_BCOEF                                                       
%FORMAT(5E16.8)                                                                 
  6.63431737E+02  4.38146883E+02  2.87011518E+02  5.36620538E+02  3.52573684E+02
  4.32634597E+02  5.90251928E+02  3.88758656E+02  4.76608379E+02  5.24668528E+02
  5.62969425E+02  3.67361018E+02  4.51916854E+02  4.98871431E+02  4.69350655E+02
  6.72777963E+02  4.41089616E+02  5.41675626E+02  5.97113873E+02  5.64804067E+02
  6.77820248E+02  1.14981426E+02  7.31636661E+01  9.08431526E+01  1.01040256E+02
  9.23664132E+01  1.12788003E+02  1.67944276E+01  1.37787728E+02  8.83545880E+01
  1.09393126E+02  1.21392023E+02  1.11953944E+02  1.36094315E+02  2.08590256E+01
  2.57122925E+01  5.22789272E+00  2.93355636E+00  3.81654050E+00  4.40751799E+00
  3.48534600E+00  4.58384710E+00  4.15568027E-01  5.90150328E-01  4.55498033E-04
  1.24325688E+02  7.98066064E+01  9.87712192E+01  1.09570372E+02  1.01173582E+02
  1.22913863E+02  1.89134207E+01  2.32899892E+01  5.44840215E-01  2.10929191E+01
%FLAG BONDS_INC_HYDROGEN                                                        
%FORMAT(10I8)                                                                   
       0     204       2       0     207       2       0     210       2       6
     213       2       9     216       5       9     219       5      12     222
       2      15     225       5      15     228       5      18     231       5
      18     234       5      21     237       5      24     240       5      24
     243       5      24     246       5      30     249       8      51     252
       2      51     255       2      54     258       5      54     261       5
      57     264       5      57     267       5      60     270       5      63
     273       2      75     276       2      78     279       5      78     282
       5      87     285       5      90     288       5      90     291       5
      90     294       5      93     297      15      99     300       5      99
     303       5      99     306       5     102     309       2     105     312
       8     108     315       2     114     318       2     114     321       2
     114     324       2     123     327       5     126     330       5     126
     333       5     126     336       5     129     339       5     129     342
       5     132     345       5     132     348       5     135     351       5
     138     354       5     138     357       5     138     360       5     141
     363      15     144     366      18     147     369      18     150     372
      21     153     375      21     159     378       5     159     381       5
     159     384       5     162     387       5     165     390       5     165
     393       5     168     396       5     171     399       5     171     402
       5     174     405       5     174     408       5     177     411       2
     183     414       2     183     417       2     186     420       2     186
     423       2     189     426       8     192     429       2     198     432
       2     198     435       2     198     438       2     201     441       5
     201     444       5
%FLAG BONDS_WITHOUT_HYDROGEN                                                    
%FORMAT(10I8)                                                                   
       0       3       1       3       6       1       6       9       3       6
     156       4       9      12       3      12      15       3      12      33
       1      15      18       3      18      21       3      21      24       3
      21      27       3      27      30       6      27      33       1      27
      36       7      36      39       9      36      42      10      42      45
       9      42      48      11      48      51      12      48      63      12
      51      54       3      54      57       3      57      60       3      60
      63       3      60     162       3      63      66       7      66      69
       9      66      72      13      72      75       1      75      78       3
      75     162       3      78      81       7      81      84       9      81
      87       7      87      90       3      87      93       4      93      96
      14      96      99       4      96     102       4     102     105       6
     102     108       3     108     111       1     108     117       7     111
     114       1     117     120       9     117     123       7     123     126
       3     123     129       3     129     132       3     132     135       3
     135     138       3     135     141       4     141     144      16     144
     147      17     147     150      19     150     153      20     153     156
      22     156     159       4     162     165       3     165     168       3
     168     171       3     168     201       3     171     174       3     174
     177       3     177     180       1     177     192       3     180     183
       1     183     186       3     186     189       6     192     195       1
     192     201       3     195     198       1
%FLAG ANGLES_INC_HYDROGEN                                                       
%FORMAT(10I8)                                                                   
       3       0     204       2       3       0     207       2       3       0
     210       2       3       6     213       2       6       9     216       6
       6       9     219       6       9       6     213      10       9      12
     222      10      12       9     216       6      12       9     219       6
      12      15     225       6      12      15     228       6      15      12
     222      10      15      18     231       6      15      18     234       6
      18      15     225       6      18      15     228       6      18      21
     237       6      21      18     231       6      21      18     234       6
      21      24     240       6      21      24     243       6      21      24
     246       6      24      21     237       6      27      21     237       6
      27      30     249      13      33      12     222       2      48      51
     252      24      48      51     255      24      48      63     273      24
      51      54     258       6      51      54     261       6      54      51
     252      10      54      51     255      10      54      57     264       6
      54      57     267       6      57      54     258       6      57      54
     261       6      57      60     270       6      60      57     264       6
      60      57     267       6      60      63     273      10      60     162
     387       6      63      60     270       6      66      63     273      28
      72      75     276       2      75      78     279       6      75      78
     282       6      75     162     387       6      78      75     276      10
      81      78     279      32      81      78     282      32      81      87
     285      32      87      90     288       6      87      90     291       6
      87      90     294       6      87      93     297      35      90      87
     285       6      93      87     285      36      96      93     297      37
      96      99     300      36      96      99     303      36      96      99
     306      36      96     102     309      39     102     105     312      13
     102     108     315      10     105     102     309      40     108     102
     309      10     111     108     315       2     111     114     318       2
     111     114     321       2     111     114     324       2     117     108
     315      28     117     123     327      32     123     126     330       6
     123     126     333       6     123     126     336       6     123     129
     339       6     123     129     342       6     126     123     327       6
     129     123     327       6     129     132     345       6     129     132
     348       6     132     129     339       6     132     129     342       6
     132     135     351       6     135     132     345       6     135     132
     348       6     135     138     354       6     135     138     357       6
     135     138     360       6     135     141     363      35     138     135
     351       6     141     135     351      36     141     144     366      43
     144     141     363      44     144     147     369      46     147     144
     366      46     147     150     372      48     150     147     369      49
     150     153     375      51     153     150     372      51     156     153
     375      52     156     159     378      36     156     159     381      36
     156     159     384      36     156       6     213      39     162      75
     276      10     162     165     390       6     162     165     393       6
     162      60     270       6     165     162     387       6     165     168
     396       6     168     165     390       6     168     165     393       6
     168     171     399       6     168     171     402       6     168     201
     441       6     168     201     444       6     171     168     396       6
     171     174     405       6     171     174     408       6     174     171
     399       6     174     171     402       6     174     177     411      10
     177     174     405       6     177     174     408       6     177     192
     429      10     180     177     411       2     180     183     414       2
     180     183     417       2     183     186     420      10     183     186
     423      10     186     183     414      10     186     183     417      10
     186     189     426      13     189     186     420      40     189     186
     423      40     192     177     411      10     192     201     441       6
     192     201     444       6     195     192     429       2     195     198
     432       2     195     198     435       2     195     198     438       2
     201     192     429      10     201     168     396       6     204       0
     207      53     204       0     210      53     207       0     210      53
     216       9     219      54     225      15     228      54     231      18
     234      54     240      24     243      54     240      24     246      54
     243      24     246      54     252      51     255      53     258      54
     261      54     264      57     267      54     279      78     282      54
     288      90     291      54     288      90     294      54     291      90
     294      54     300      99     303      54     300      99     306      54
     303      99     306      54     318     114     321      53     318     114
     324      53     321     114     324      53     330     126     333      54
     330     126     336      54     333     126     336      54     339     129
     342      54     345     132     348      54     354     138     357      54
     354     138     360      54     357     138     360      54     378     159
     381      54     378     159     384      54     381     159     384      54
     390     165     393      54     399     171     402      54     405     174
     408      54     414     183     417      53     420     186     423      53
     432     198     435      53     432     198     438      53     435     198
     438      53     441     201     444      54
%FLAG ANGLES_WITHOUT_HYDROGEN                                                   
%FORMAT(10I8)                                                                   
       0       3       6       1       3       6       9       3       3       6
     156       4       6       9      12       5       6     156     153       7
       6     156     159       8       9       6     156       9       9      12
      15       5       9      12      33       3      12      15      18       5
      12      33      27       1      15      12      33       3      15      18
      21       5      18      21      24       5      18      21      27       5
      21      27      30      11      21      27      33       3      21      27
      36      12      24      21      27       5      27      36      39      14
      27      36      42      15      30      27      33      16      30      27
      36      17      33      27      36      18      36      42      45      19
      36      42      48      20      39      36      42      19      42      48
      51      21      42      48      63      21      45      42      48      22
      48      51      54      23      48      63      60      23      48      63
      66      25      51      48      63      26      51      54      57       5
      54      57      60       5      57      60      63       5      57      60
     162       5      60      63      66      12      60     162      75       5
      60     162     165       5      63      60     162       5      63      66
      69      14      63      66      72      27      66      72      75      29
      69      66      72      30      72      75      78       3      72      75
     162       3      75      78      81      12      75     162     165       5
      78      75     162       5      78      81      84      14      78      81
      87      31      81      87      90      12      81      87      93      33
      84      81      87      14      87      93      96      34      90      87
      93       9      93      96      99      34      93      96     102      34
      96     102     105      38      96     102     108       9      99      96
     102       8     102     108     111       3     102     108     117      12
     105     102     108      11     108     111     114       1     108     117
     120      14     108     117     123      31     111     108     117      18
     117     123     126      12     117     123     129      12     120     117
     123      14     123     129     132       5     126     123     129       5
     129     132     135       5     132     135     138       5     132     135
     141       9     135     141     144      41     138     135     141       9
     141     144     147      42     144     147     150      45     147     150
     153      47     150     153     156      50     153     156     159       7
     162     165     168       5     165     168     171       5     165     168
     201       5     168     171     174       5     168     201     192       5
     171     168     201       5     171     174     177       5     174     177
     180       3     174     177     192       5     177     180     183       1
     177     192     195       3     177     192     201       5     180     177
     192       3     180     183     186       3     183     186     189      11
     192     195     198       1     195     192     201       3
%FLAG DIHEDRALS_INC_HYDROGEN                                                    
%FORMAT(10I8)                                                                   
       0       3       6     213       5       3       6       9     216       7
       3       6      -9     216       8       3       6       9     219       7
       3       6      -9     219       8     204       0       3       6       5
     207       0       3       6       5     210       0       3       6       5
       6       9      12     222       6       6     156     153     375      13
       6     156     159     378      14       6     156     159     381      14
       6     156     159     384      14       9      12      15     225      15
       9      12      15     228      15      12       9       6     213       6
      12      15      18     231      15      12      15      18     234      15
      15      12       9     216      15      15      12       9     219      15
      15      18      21     237      15      18      15      12     222       6
      18      21      24     240      15      18      21      24     243      15
      18      21      24     246      15      21      18      15     225      15
      21      18      15     228      15      21      27      30     249       8
      24      21      18     231      15      24      21      18     234      15
      27      21      18     231      15      27      21      18     234      15
      27      21      24     240      15      27      21      24     243      15
      27      21      24     246      15      27      33      12     222       5
      30      27      21     237      23      30      27     -21     237      24
      33      27      21     237       7      33      27     -21     237       8
      33      27      30     249      25      33      12       9     216       7
      33      12      -9     216       8      33      12       9     219       7
      33      12      -9     219       8      33      12      15     225       7
      33      12     -15     225       8      33      12      15     228       7
      33      12     -15     228       8      36      27      21     237       6
      36      27      30     249      25      42      48      51     252      21
      42      48      51     255      21      42      48      63     273      21
      48      51      54     258       6      48      51      54     261       6
      48      63      60     270       6      51      48      63     273       9
      51      54      57     264      15      51      54      57     267      15
      54      57      60     270      15      57      54      51     252       6
      57      54      51     255       6      57      60      63     273       6
      57      60     162     387      15      60      57      54     258      15
      60      57      54     261      15      60     162      75     276       6
      60     162     165     390      15      60     162     165     393      15
      63      60      57     264      15      63      60      57     267      15
      63      60     162     387      15      63      48      51     252       9
      63      48      51     255       9      66      63      60     270       6
      66      72      75     276       4      69      66      63     273      40
      69      66     -63     273      41      72      66      63     273      21
      72      75      78     279       7      72      75     -78     279       8
      72      75      78     282       7      72      75     -78     282       8
      72      75     162     387       7      72      75    -162     387       8
      75     162     165     390      15      75     162     165     393      15
      75     162      60     270      15      78      75     162     387      15
      78      81      87     285       9      81      78      75     276       6
      81      87      90     288       6      81      87      90     291       6
      81      87      90     294       6      81      87      93     297       9
      84      81      78     279      45      84      81     -78     279      46
      84      81      78     282      45      84      81     -78     282      46
      84      81      87     285      45      84      81     -87     285      46
      87      81      78     279       9      87      81      78     282       9
      90      87      93     297       9      93      87      90     288       6
      93      87      90     291       6      93      87      90     294       6
      93      96      99     300      49      93      96     -99     300      50
      93      96      99     303      49      93      96     -99     303      50
      93      96      99     306      49      93      96     -99     306      50
      93      96     102     309       9      96      93      87     285      49
      96      93     -87     285      50      96     102     105     312      25
      96     102     108     315       6      99      96      93     297      13
      99      96     102     309       9     102      96      93     297      13
     102      96      99     300      14     102      96      99     303      14
     102      96      99     306      14     105     102     108     315       7
     105     102    -108     315       8     108     102     105     312       8
     108     111     114     318       5     108     111     114     321       5
     108     111     114     324       5     108     117     123     327       9
     111     108     102     309       7     111     108    -102     309       8
     114     111     108     315       5     117     108     102     309       6
     117     123     126     330       6     117     123     126     333       6
     117     123     126     336       6     117     123     129     339       6
     117     123     129     342       6     120     117     108     315      40
     120     117    -108     315      41     120     117     123     327      45
     120     117    -123     327      46     123     117     108     315      21
     123     129     132     345      15     123     129     132     348      15
     126     123     129     339      15     126     123     129     342      15
     129     123     126     330      15     129     123     126     333      15
     129     123     126     336      15     129     132     135     351      15
     132     129     123     327      15     132     135     138     354      15
     132     135     138     357      15     132     135     138     360      15
     132     135     141     363       9     135     132     129     339      15
     135     132     129     342      15     135     141     144     366      13
     138     135     132     345      15     138     135     132     348      15
     138     135     141     363       9     141     135     132     345       6
     141     135     132     348       6     141     135     138     354       6
     141     135     138     357       6     141     135     138     360       6
     141     144     147     369      53     144     141     135     351       9
     144     147     150     372      13     147     144     141     363      13
     147     150     153     375      53     150     147     144     366      53
     153     150     147     369      13     153     156     159     378       9
     153     156     159     381       9     153     156     159     384       9
     153     156       6     213       9     156     153     150     372      53
     156       6       9     216       6     156       6       9     219       6
     159     156     153     375      13     159     156       6     213       9
     162      75      78     279      15     162      75      78     282      15
     162     165     168     396      15     162      60      57     264      15
     162      60      57     267      15     162      60      63     273       6
     165     162      75     276       6     165     162      60     270      15
     165     168     171     399      15     165     168     171     402      15
     165     168     201     441      15     165     168     201     444      15
     168     165     162     387      15     168     171     174     405      15
     168     171     174     408      15     168     201     192     429       6
     171     168     165     390      15     171     168     165     393      15
     171     168     201     441      15     171     168     201     444      15
     171     174     177     411       6     174     171     168     396      15
     174     177     192     429       6     177     174     171     399      15
     177     174     171     402      15     177     180     183     414       5
     177     180     183     417       5     177     192     201     441      15
     177     192     201     444      15     180     177     174     405       7
     180     177    -174     405       8     180     177     174     408       7
     180     177    -174     408       8     180     177     192     429       7
     180     177    -192     429       8     180     183     186     420       7
     180     183    -186     420       8     180     183     186     423       7
     180     183    -186     423       8     183     180     177     411       5
     183     186     189     426       8     189     186     183     414       7
     189     186    -183     414       8     189     186     183     417       7
     189     186    -183     417       8     192     177     174     405      15
     192     177     174     408      15     192     195     198     432       5
     192     195     198     435       5     192     195     198     438       5
     192     201     168     396      15     195     192     177     411       7
     195     192    -177     411       8     195     192     201     441       7
     195     192    -201     441       8     195     192     201     444       7
     195     192    -201     444       8     198     195     192     429       5
     201     192     177     411       6     201     168     165     390      15
     201     168     165     393      15     201     168     171     399      15
     201     168     171     402      15     213       6       9     216       6
     213       6       9     219       6     216       9      12     222       6
     219       9      12     222       6     222      12      15     225       6
     222      12      15     228       6     225      15      18     231      55
     225      15      18     234      55     228      15      18     231      55
     228      15      18     234      55     231      18      21     237      55
     234      18      21     237      55     237      21      24     240      55
     237      21      24     243      55     237      21      24     246      55
     252      51      54     258       6     252      51      54     261       6
     255      51      54     258       6     255      51      54     261       6
     258      54      57     264      55     258      54      57     267      55
     261      54      57     264      55     261      54      57     267      55
     264      57      60     270      55     267      57      60     270      55
     270      60      63     273       6     270      60     162     387      55
     276      75      78     279       6     276      75      78     282       6
     276      75     162     387       6     285      87      90     288      55
     285      87      90     291      55     285      87      90     294      55
     285      87      93     297       9     309     102     105     312      56
     309     102     108     315       6     327     123     126     330      55
     327     123     126     333      55     327     123     126     336      55
     327     123     129     339      55     327     123     129     342      55
     339     129     132     345      55     339     129     132     348      55
     342     129     132     345      55     342     129     132     348      55
     345     132     135     351      55     348     132     135     351      55
     351     135     138     354      55     351     135     138     357      55
     351     135     138     360      55     351     135     141     363       9
     363     141     144     366      13     366     144     147     369      53
     369     147     150     372      13     372     150     153     375      53
     387     162     165     390      55     387     162     165     393      55
     390     165     168     396      55     393     165     168     396      55
     396     168     171     399      55     396     168     171     402      55
     396     168     201     441      55     396     168     201     444      55
     399     171     174     405      55     399     171     174     408      55
     402     171     174     405      55     402     171     174     408      55
     405     174     177     411       6     408     174     177     411       6
     411     177     192     429       6     414     183     186     420       6
     414     183     186     423       6     417     183     186     420       6
     417     183     186     423       6     420     186     189     426      56
     423     186     189     426      56     429     192     201     441       6
     429     192     201     444       6      96      87     -93    -297      58
     135     144    -141    -363      58     141     147    -144    -366      58
     144     150    -147    -369      58     147     153    -150    -372      58
     156     150    -153    -375      58
%FLAG DIHEDRALS_WITHOUT_HYDROGEN                                                
%FORMAT(10I8)                                                                   
       0       3       6       9       1       0       3      -6       9       2
       0       3      -6       9       3       0       3       6     156       4
       3       6       9      12       6       3       6     156     153       9
       3       6     156     159       9       6       9      12      15      10
       6       9     -12      15      11       6       9     -12      15      12
       6       9      12      33       6       6     156     153     150      13
       9       6     156     153       9       9       6     156     159       9
       9      12      15      18      10       9      12     -15      18      11
       9      12     -15      18      12       9      12      33      27       1
       9      12     -33      27       2       9      12     -33      27       3
      12       9       6     156       6      12      15      18      21      10
      12      15     -18      21      11      12      15     -18      21      12
      12      33     -27      21       1      12      33     -27      21       2
      12      33     -27      21       3      12      33      27      30       4
      12      33      27      36       4      15      12      33      27       1
      15      12     -33      27       2      15      12     -33      27       3
      15      18      21      24      10      15      18     -21      24      11
      15      18     -21      24      12      15      18     -21      27      10
      15      18     -21      27      11      15      18     -21      27      12
      18      15      12      33       6      18      21      27      30      16
      18      21     -27      33       6      18      21      27      36      17
      21      27      36      39      18      21      27     -36      39      19
      21      27     -36      39      20      21      27      36      42      21
      24      21      27      30      16      24      21      27      33       6
      24      21      27      36      17      27      36      42      45      22
      27      36      42      48      22      30      27      36      39      21
      30      27      36      42      21      33      27      36      39      26
      33      27     -36      39      27      33      27     -36      39      28
      33      27      36      42      21      36      42      48      51      29
      36      42      48      63      29      39      36      42      45      22
      39      36      42      48      22      42      48      51      54      30
      42      48     -51      54      31      42      48     -51      54      32
      42      48      63      60      30      42      48     -63      60      31
      42      48     -63      60      32      42      48      63      66      33
      42      48     -63      66      34      45      42      48      51      29
      45      42      48      63      29      48      51      54      57      17
      48      63     -60      57      17      48      63      60     162      17
      48      63      66      69      21      48      63      66      72      21
      51      48      63      60       9      51      48      63      66       9
      51      54     -57      60      10      51      54     -57      60      11
      51      54     -57      60      12      54      51      48      63       9
      54      57     -60      63      10      54      57     -60      63      11
      54      57     -60      63      12      54      57      60     162      10
      54      57     -60     162      11      54      57     -60     162      12
      57      60      63      66      17      57      60     162      75      10
      57      60    -162      75      11      57      60    -162      75      12
      57      60     162     165      10      57      60    -162     165      11
      57      60    -162     165      12      60      63      66      69      18
      60      63     -66      69      19      60      63     -66      69      20
      60      63      66      72      21      60     162     -75      72       6
      60     162      75      78      10      60     162     -75      78      11
      60     162     -75      78      12      60     162     165     168      10
      60     162    -165     168      11      60     162    -165     168      12
      63      60     162      75      10      63      60    -162      75      11
      63      60    -162      75      12      63      60     162     165      10
      63      60    -162     165      11      63      60    -162     165      12
      63      66     -72      75      35      63      66     -72      75      36
      63      66     -72      75      37      66      63      60     162      17
      66      72      75      78      38      66      72     -75      78      39
      66      72     -75     162      38      66      72     -75     162      39
      69      66      72      75      42      69      66     -72      75      43
      72      75      78      81       6      72      75     162     165       6
      75      78      81      84      18      75      78     -81      84      19
      75      78     -81      84      20      75      78      81      87      44
      75     162     165     168      10      75     162    -165     168      11
      75     162    -165     168      12      78      75     162     165      10
      78      75    -162     165      11      78      75    -162     165      12
      78      81      87      90      44      78      81      87      93      21
      81      78      75     162      17      81      87      93      96       9
      84      81      87      90      18      84      81     -87      90      19
      84      81     -87      90      20      84      81      87      93      21
      87      93      96      99      47      87      93     -96      99      48
      87      93      96     102      47      87      93     -96     102      48
      90      87      93      96       9      93      96     102     105       9
      93      96     102     108       9      96     102     108     111       6
      96     102     108     117       6      99      96     102     105       9
      99      96     102     108       9     102     108     111     114       1
     102     108    -111     114       2     102     108    -111     114       3
     102     108     117     120      18     102     108    -117     120      19
     102     108    -117     120      20     102     108     117     123      44
     105     102     108     111      51     105     102    -108     111       9
     105     102    -108     111      52     105     102     108     117      16
     108     117     123     126      44     108     117     123     129      44
     111     108     117     120      26     111     108    -117     120      27
     111     108    -117     120      28     111     108     117     123      21
     114     111     108     117       4     117     123     129     132      17
     120     117     123     126      18     120     117    -123     126      19
     120     117    -123     126      20     120     117     123     129      18
     120     117    -123     129      19     120     117    -123     129      20
     123     129     132     135      10     123     129    -132     135      11
     123     129    -132     135      12     126     123     129     132      10
     126     123    -129     132      11     126     123    -129     132      12
     129     132     135     138      10     129     132    -135     138      11
     129     132    -135     138      12     129     132     135     141       6
     132     135     141     144       9     135     141     144     147      13
     138     135     141     144       9     141     144     147     150      53
     144     147     150     153      13     147     150     153     156      53
     150     153     156     159      13     162     165     168     171      10
     162     165    -168     171      11     162     165    -168     171      12
     162     165     168     201      10     162     165    -168     201      11
     162     165    -168     201      12     165     168     171     174      10
     165     168    -171     174      11     165     168    -171     174      12
     165     168     201     192      10     165     168    -201     192      11
     165     168    -201     192      12     168     171     174     177      10
     168     171    -174     177      11     168     171    -174     177      12
     168     201    -192     177      10     168     201    -192     177      11
     168     201    -192     177      12     168     201     192     195       6
     171     168     201     192      10     171     168    -201     192      11
     171     168    -201     192      12     171     174     177     180       6
     171     174    -177     192      10     171     174    -177     192      11
     171     174    -177     192      12     174     171     168     201      10
     174     171    -168     201      11     174     171    -168     201      12
     174     177     180     183       1     174     177    -180     183       2
     174     177    -180     183       3     174     177     192     195       6
     174     177    -192     201      10     174     177    -192     201      11
     174     177    -192     201      12     177     180     183     186       1
     177     180    -183     186       2     177     180    -183     186       3
     177     192     195     198       1     177     192    -195     198       2
     177     192    -195     198       3     180     177     192     195      54
     180     177    -192     195      21     180     177    -192     195       8
     180     177     192     201       6     180     183     186     189      51
     180     183    -186     189       9     180     183    -186     189      52
     183     180     177     192       1     183     180    -177     192       2
     183     180    -177     192       3     198     195     192     201       1
     198     195    -192     201       2     198     195    -192     201       3
      42      27     -36     -39      57      36      48     -42     -45      57
      42      51     -48     -63      58      63      69     -66     -72      58
      78      87     -81     -84      57      93      99     -96    -102      58
     108     123    -117    -120      57       6     159    -156    -153      58
%FLAG EXCLUDED_ATOMS_LIST                                                       
%FORMAT(10I8)                                                                   
       2       3       4      53      69      70      71      72       3       4
       5      52      53      54      69      70      71      72      73      74
       4       5       6      12      51      52      53      54      69      70
      71      72      73      74      75     126     127     128     129       5
       6       7      10      12      52      53      54      72      73      74
      75      76      77       6       7       8      10      11      12      13
      53      72      73      74      75      76      77      78      79       7
       8       9      10      12      73      74      75      76      77      78
      79      80       8       9      10      11      12      13      75      76
      77      78      79      80      81      82      83       9      10      11
      12      13      14      15      76      77      78      79      80      81
      82      83      84      10      11      12      13      78      79      80
      81      82      83      11      12      13      14      15      16      17
      75      78      79      80      81      82      83      84      12      13
      14      15      80      84      13      14      15      73      74      75
      76      77      80      84      14      15      16      17      18      22
      80      84      15      16      17      16      17      18      19      21
      22      23      85      86      92      17      18      22      18      19
      20      21      22      23      24      25      55      85      86      87
      88      91      92      19      20      21      22      23      85      86
      87      88      89      90      92      20      21      22      55      85
      86      87      88      89      90      91      21      22      23      26
      55      56      85      86      87      88      89      90      91      92
     130      22      23      24      25      26      27      55      56      57
      87      88      89      90      91      92      93     130     131     132
      23      24      25      26      55      56      85      86      89      90
      91      92     130      24      25      26      27      55      91      92
      93      25      26      92      26      27      28      55      56      92
      93      94      95     130      27      28      29      30      55      56
      57      91      93      94      95     130     131     132      28      29
      30      31      32      55      56      93      94      95      96     130
      29      30      31      32      33      55      93      94      95      96
      97      98      99     100      30      31      32      94      95      96
      31      32      33      34      35      94      95      96      97      98
      99     100      32      33      96      97      98      99     100      33
      34      35      36      37      96      97      98      99     100     101
     102     103     104      34      35      36      37      38      40      96
     100     101     102     103     104     105     106      35      36      37
     100     101     102     103     104      36      37      38      39      40
      41      42     100     101     102     103     104     105     106      37
      38      40     104     105     106      38      39      40      41      42
      43      44     104     105     106     107     108     109     110      39
      40      41      42     104     106     107     108     109      40     106
     107     108     109      41      42      43      44      45     104     106
     110     111     112     113     114     115      42      43      44     106
     110      43      44      45      46     106     110     111     112     113
     114     115     116     117      44      45     110     111     112     113
     114     115      45      46      47      48     110     111     112     113
     114     115     116     117     118      46      47      48      49     110
     114     115     116     117     118     119     120     121     122      47
      48      49      50     114     115     116     117     118     119     120
     121     122     123      48      49     116     117     118     119     120
     121     122      49      50      51     116     117     118     119     120
     121     122     123     124      50      51      52     118     122     123
     124     125      51      52      53     122     123     124     125     126
      52      53      54     123     124     125     126      53      54      72
     124     125     126     127     128     129      54      72      73      74
     125     126     127     128     129      72     126     127     128     129
      56      57      58      68      89      90      91      92      93      94
      95     130     131     132     133      57      58      59      65      68
      91      93     130     131     132     133     134     135     148     149
      58      59      60      65      66      68     130     131     132     133
     134     135     136     137     144     148     149      59      60      61
      65      68     131     132     133     134     135     136     137     138
     148     149      60      61      62      65      66      68     133     134
     135     136     137     138     144      61      62      63      65      66
      67      68     134     135     136     137     138     139     140     144
     148     149      62      63      64      65      66      68     136     137
     138     139     140     141     142     144      63      64      65     138
     139     140     141     142     143      64     139     140     141     142
     143     139     140     141     142     143      66      67      68     133
     136     137     138     144     145     146     147     148     149      67
      68     138     144     145     146     147     148     149      68     144
     145     146     147     131     132     133     134     135     138     144
     148     149      70      71      71       0      73      74      74      75
      75      76      77      77      78      79      78      79      79      80
      80      81      82      83      82      83      83       0       0      86
      87      88      87      88      88      89      90      89      90      90
      91      91      92     130       0      94      95     130      95       0
      97      98      99     100      98      99      99       0       0     102
     103     103       0     105     106       0       0     108     109     109
       0     111     112     113     114     115     112     113     113       0
     115     116     117     116     117     117     118     118     119     120
     121     122     120     121     121       0     123     124     125     126
       0     128     129     129       0     131     132     132     133     133
     134     135     148     149     135     136     137     136     137     137
     138     138     144     140     141     142     141     142     142     143
     143       0     148     149     146     147     147       0     149       0
%FLAG HBOND_ACOEF                                                               
%FORMAT(5E16.8)                                                                 

%FLAG HBOND_BCOEF                                                               
%FORMAT(5E16.8)                                                                 

%FLAG HBCUT                                                                     
%FORMAT(5E16.8)                                                                 

%FLAG AMBER_ATOM_TYPE                                                           
%FORMAT(20a4)                                                                   
c3  os  c3  c3  c3  c3  c3  c3  c3  c3  oh  os  c   o   c   o   n   c3  c3  c3  
c3  c3  c   o   os  c3  c3  c   o   c3  c3  c2  c2  c3  c3  oh  c3  os  c3  c   
o   c3  c3  c3  c3  c3  c3  c2  ce  ce  cf  cf  c2  c3  c3  c3  c3  c3  c3  c3  
os  c3  c3  oh  c3  os  c3  c3  h1  h1  h1  h1  hc  hc  h1  hc  hc  hc  hc  hc  
hc  hc  hc  ho  h1  h1  hc  hc  hc  hc  hc  h1  h1  hc  hc  hc  hc  hc  hc  ha  
hc  hc  hc  h1  ho  h1  h1  h1  h1  hc  hc  hc  hc  hc  hc  hc  hc  hc  hc  hc  
hc  ha  ha  ha  ha  ha  hc  hc  hc  hc  hc  hc  hc  hc  hc  hc  hc  h1  h1  h1  
h1  h1  ho  h1  h1  h1  h1  hc  hc  
%FLAG TREE_CHAIN_CLASSIFICATION                                                 
%FORMAT(20a4)                                                                   
BLA BLA BLA BLA BLA BLA BLA BLA BLA BLA BLA BLA BLA BLA BLA BLA BLA BLA BLA BLA 
BLA BLA BLA BLA BLA BLA BLA BLA BLA BLA BLA BLA BLA BLA BLA BLA BLA BLA BLA BLA 
BLA BLA BLA BLA BLA BLA BLA BLA BLA BLA BLA BLA BLA BLA BLA BLA BLA BLA BLA BLA 
BLA BLA BLA BLA BLA BLA BLA BLA BLA BLA BLA BLA BLA BLA BLA BLA BLA BLA BLA BLA 
BLA BLA BLA BLA BLA BLA BLA BLA BLA BLA BLA BLA BLA BLA BLA BLA BLA BLA BLA BLA 
BLA BLA BLA BLA BLA BLA BLA BLA BLA BLA BLA BLA BLA BLA BLA BLA BLA BLA BLA BLA 
BLA BLA BLA BLA BLA BLA BLA BLA BLA BLA BLA BLA BLA BLA BLA BLA BLA BLA BLA BLA 
BLA BLA BLA BLA BLA BLA BLA BLA BLA 
%FLAG JOIN_ARRAY                                                                
%FORMAT(10I8)                                                                   
       0       0       0       0       0       0       0       0       0       0
       0       0       0       0       0       0       0       0       0       0
       0       0       0       0       0       0       0       0       0       0
       0       0       0       0       0       0       0       0       0       0
       0       0       0       0       0       0       0       0       0       0
       0       0       0       0       0       0       0       0       0       0
       0       0       0       0       0       0       0       0       0       0
       0       0       0       0       0       0       0       0       0       0
       0       0       0       0       0       0       0       0       0       0
       0       0       0       0       0       0       0       0       0       0
       0       0       0       0       0       0       0       0       0       0
       0       0       0       0       0       0       0       0       0       0
       0       0       0       0       0       0       0       0       0       0
       0       0       0       0       0       0       0       0       0       0
       0       0       0       0       0       0       0       0       0
%FLAG IROTAT                                                                    
%FORMAT(10I8)                                                                   
       0       0       0       0       0       0       0       0       0       0
       0       0       0       0       0       0       0       0       0       0
       0       0       0       0       0       0       0       0       0       0
       0       0       0       0       0       0       0       0       0       0
       0       0       0       0       0       0       0       0       0       0
       0       0       0       0       0       0       0       0       0       0
       0       0       0       0       0       0       0       0       0       0
       0       0       0       0       0       0       0       0       0       0
       0       0       0       0       0       0       0       0       0       0
       0       0       0       0       0       0       0       0       0       0
       0       0       0       0       0       0       0       0       0       0
       0       0       0       0       0       0       0       0       0       0
       0       0       0       0       0       0       0       0       0       0
       0       0       0       0       0       0       0       0       0       0
       0       0       0       0       0       0       0       0       0
%FLAG RADIUS_SET                                                                
%FORMAT(1a80)                                                                   
modified Bondi radii (mbondi)                                                   
%FLAG RADII                                                                     
%FORMAT(5E16.8)                                                                 
  1.70000000E+00  1.50000000E+00  1.70000000E+00  1.70000000E+00  1.70000000E+00
  1.70000000E+00  1.70000000E+00  1.70000000E+00  1.70000000E+00  1.70000000E+00
  1.50000000E+00  1.50000000E+00  1.70000000E+00  1.50000000E+00  1.70000000E+00
  1.50000000E+00  1.55000000E+00  1.70000000E+00  1.70000000E+00  1.70000000E+00
  1.70000000E+00  1.70000000E+00  1.70000000E+00  1.50000000E+00  1.50000000E+00
  1.70000000E+00  1.70000000E+00  1.70000000E+00  1.50000000E+00  1.70000000E+00
  1.70000000E+00  1.70000000E+00  1.70000000E+00  1.70000000E+00  1.70000000E+00
  1.50000000E+00  1.70000000E+00  1.50000000E+00  1.70000000E+00  1.70000000E+00
  1.50000000E+00  1.70000000E+00  1.70000000E+00  1.70000000E+00  1.70000000E+00
  1.70000000E+00  1.70000000E+00  1.70000000E+00  1.70000000E+00  1.70000000E+00
  1.70000000E+00  1.70000000E+00  1.70000000E+00  1.70000000E+00  1.70000000E+00
  1.70000000E+00  1.70000000E+00  1.70000000E+00  1.70000000E+00  1.70000000E+00
  1.50000000E+00  1.70000000E+00  1.70000000E+00  1.50000000E+00  1.70000000E+00
  1.50000000E+00  1.70000000E+00  1.70000000E+00  1.30000000E+00  1.30000000E+00
  1.30000000E+00  1.30000000E+00  1.30000000E+00  1.30000000E+00  1.30000000E+00
  1.30000000E+00  1.30000000E+00  1.30000000E+00  1.30000000E+00  1.30000000E+00
  1.30000000E+00  1.30000000E+00  1.30000000E+00  8.00000000E-01  1.30000000E+00
  1.30000000E+00  1.30000000E+00  1.30000000E+00  1.30000000E+00  1.30000000E+00
  1.30000000E+00  1.30000000E+00  1.30000000E+00  1.30000000E+00  1.30000000E+00
  1.30000000E+00  1.30000000E+00  1.30000000E+00  1.30000000E+00  1.30000000E+00
  1.30000000E+00  1.30000000E+00  1.30000000E+00  1.30000000E+00  8.00000000E-01
  1.30000000E+00  1.30000000E+00  1.30000000E+00  1.30000000E+00  1.30000000E+00
  1.30000000E+00  1.30000000E+00  1.30000000E+00  1.30000000E+00  1.30000000E+00
  1.30000000E+00  1.30000000E+00  1.30000000E+00  1.30000000E+00  1.30000000E+00
  1.30000000E+00  1.30000000E+00  1.30000000E+00  1.30000000E+00  1.30000000E+00
  1.30000000E+00  1.30000000E+00  1.30000000E+00  1.30000000E+00  1.30000000E+00
  1.30000000E+00  1.30000000E+00  1.30000000E+00  1.30000000E+00  1.30000000E+00
  1.30000000E+00  1.30000000E+00  1.30000000E+00  1.30000000E+00  1.30000000E+00
  1.30000000E+00  1.30000000E+00  8.00000000E-01  1.30000000E+00  1.30000000E+00
  1.30000000E+00  1.30000000E+00  1.30000000E+00  1.30000000E+00
%FLAG SCREEN                                                                    
%FORMAT(5E16.8)                                                                 
  7.20000000E-01  8.50000000E-01  7.20000000E-01  7.20000000E-01  7.20000000E-01
  7.20000000E-01  7.20000000E-01  7.20000000E-01  7.20000000E-01  7.20000000E-01
  8.50000000E-01  8.50000000E-01  7.20000000E-01  8.50000000E-01  7.20000000E-01
  8.50000000E-01  7.90000000E-01  7.20000000E-01  7.20000000E-01  7.20000000E-01
  7.20000000E-01  7.20000000E-01  7.20000000E-01  8.50000000E-01  8.50000000E-01
  7.20000000E-01  7.20000000E-01  7.20000000E-01  8.50000000E-01  7.20000000E-01
  7.20000000E-01  7.20000000E-01  7.20000000E-01  7.20000000E-01  7.20000000E-01
  8.50000000E-01  7.20000000E-01  8.50000000E-01  7.20000000E-01  7.20000000E-01
  8.50000000E-01  7.20000000E-01  7.20000000E-01  7.20000000E-01  7.20000000E-01
  7.20000000E-01  7.20000000E-01  7.20000000E-01  7.20000000E-01  7.20000000E-01
  7.20000000E-01  7.20000000E-01  7.20000000E-01  7.20000000E-01  7.20000000E-01
  7.20000000E-01  7.20000000E-01  7.20000000E-01  7.20000000E-01  7.20000000E-01
  8.50000000E-01  7.20000000E-01  7.20000000E-01  8.50000000E-01  7.20000000E-01
  8.50000000E-01  7.20000000E-01  7.20000000E-01  8.50000000E-01  8.50000000E-01
  8.50000000E-01  8.50000000E-01  8.50000000E-01  8.50000000E-01  8.50000000E-01
  8.50000000E-01  8.50000000E-01  8.50000000E-01  8.50000000E-01  8.50000000E-01
  8.50000000E-01  8.50000000E-01  8.50000000E-01  8.50000000E-01  8.50000000E-01
  8.50000000E-01  8.50000000E-01  8.50000000E-01  8.50000000E-01  8.50000000E-01
  8.50000000E-01  8.50000000E-01  8.50000000E-01  8.50000000E-01  8.50000000E-01
  8.50000000E-01  8.50000000E-01  8.50000000E-01  8.50000000E-01  8.50000000E-01
  8.50000000E-01  8.50000000E-01  8.50000000E-01  8.50000000E-01  8.50000000E-01
  8.50000000E-01  8.50000000E-01  8.50000000E-01  8.50000000E-01  8.50000000E-01
  8.50000000E-01  8.50000000E-01  8.50000000E-01  8.50000000E-01  8.50000000E-01
  8.50000000E-01  8.50000000E-01  8.50000000E-01  8.50000000E-01  8.50000000E-01
  8.50000000E-01  8.50000000E-01  8.50000000E-01  8.50000000E-01  8.50000000E-01
  8.50000000E-01  8.50000000E-01  8.50000000E-01  8.50000000E-01  8.50000000E-01
  8.50000000E-01  8.50000000E-01  8.50000000E-01  8.50000000E-01  8.50000000E-01
  8.50000000E-01  8.50000000E-01  8.50000000E-01  8.50000000E-01  8.50000000E-01
  8.50000000E-01  8.50000000E-01  8.50000000E-01  8.50000000E-01  8.50000000E-01
  8.50000000E-01  8.50000000E-01  8.50000000E-01  8.50000000E-01
%FLAG IPOL                                                                      
%FORMAT(1I8)                                                                    
       0
