MOL
   149
  -2.1070000  -0.3010000  -7.6570000  -1.9700000  -0.8890000  -6.3680000
  -2.9560000  -0.4220000  -5.4400000  -3.1060000  -1.4640000  -4.3210000
  -3.1580000  -2.9250000  -4.7780000  -4.3460000  -3.2420000  -5.6770000
  -4.3710000  -4.7350000  -5.9890000  -4.3250000  -5.5820000  -4.7030000
  -4.2190000  -7.0620000  -5.0890000  -3.1840000  -5.1160000  -3.7650000
  -1.9270000  -5.4550000  -4.3280000  -3.2640000  -3.6970000  -3.5760000
  -3.3700000  -5.6720000  -2.3360000  -4.1740000  -6.5210000  -1.9710000
  -2.4250000  -5.0460000  -1.3260000  -1.2230000  -5.2270000  -1.5060000
  -2.9630000  -4.2470000  -0.3140000  -4.3970000  -4.1060000  -0.0860000
  -4.7560000  -2.6630000   0.2240000  -3.9670000  -2.1740000   1.4270000
  -2.4440000  -2.2930000   1.2010000  -2.0390000  -3.6850000   0.6850000
  -1.7550000  -4.6390000   1.8470000  -2.2630000  -5.7470000   1.9680000
  -0.8480000  -4.1750000   2.7500000  -0.4580000  -2.7730000   2.7900000
   0.7840000  -2.5480000   1.9210000   2.0460000  -3.0480000   2.6200000
   2.1770000  -2.9740000   3.8430000   3.1530000  -3.6110000   1.7160000
   4.2850000  -4.2720000   2.5010000   3.6610000  -2.5920000   0.7200000
   4.1510000  -1.3470000   0.9180000   4.3220000  -0.7180000   2.2810000
   4.6190000  -0.4440000  -0.2330000   4.6910000  -1.2050000  -1.4550000
   3.7430000   0.8180000  -0.5040000   2.3430000   0.5750000  -0.3170000
   1.7460000  -0.1150000  -1.4090000   4.2230000   2.0240000   0.3320000
   5.3050000   2.0130000   0.9290000   3.3640000   3.2930000   0.3760000
   2.1930000   3.1120000   1.3350000   2.9490000   3.7550000  -1.0280000
   2.2440000   5.1210000  -1.0400000   1.9600000   5.6680000  -2.4600000
   1.3050000   7.0500000  -2.3590000   1.1780000   4.6650000  -3.2790000
  -0.1290000   4.6860000  -3.5870000  -0.7840000   3.6110000  -4.3030000
  -0.6380000   2.3230000  -3.9550000  -1.2240000   1.1890000  -4.6230000
  -2.5300000   0.9060000  -4.8110000  -3.6710000   1.7820000  -4.3690000
  -1.6960000  -1.8940000   2.5070000  -1.4710000  -0.3610000   2.5640000
  -1.0130000   0.1700000   3.9470000  -1.7330000   1.4860000   4.3160000
  -0.9180000   2.7150000   3.9300000   0.4100000   2.7650000   4.6980000
   0.2010000   3.4700000   5.9380000   0.4960000   4.8640000   5.8560000
   1.9910000   5.1380000   6.0100000   2.2470000   6.5390000   6.0090000
   0.9590000   1.3610000   5.0510000   2.3940000   1.4580000   5.0740000
   3.0140000   0.4430000   5.8540000   0.5190000   0.3300000   4.0090000
  -2.0290000   0.7890000  -7.6050000  -1.3020000  -0.6770000  -8.2920000
  -3.0640000  -0.5880000  -8.1050000  -3.9150000  -0.3090000  -5.9620000
  -2.2570000  -1.3860000  -3.6260000  -3.9890000  -1.2340000  -3.7090000
  -2.2160000  -3.1770000  -5.2800000  -4.2990000  -2.6730000  -6.6120000
  -5.2810000  -2.9730000  -5.1700000  -5.2740000  -4.9730000  -6.5640000
  -3.5140000  -4.9800000  -6.6300000  -5.2830000  -5.4290000  -4.1870000
  -4.2210000  -7.7120000  -4.2100000  -3.3040000  -7.2660000  -5.6570000
  -5.0680000  -7.3560000  -5.7150000  -1.2620000  -5.3530000  -3.6190000
  -4.9730000  -4.4230000  -0.9580000  -4.6700000  -4.7650000   0.7460000
  -4.5360000  -2.0280000  -0.6440000  -5.8300000  -2.5810000   0.4240000
  -4.2650000  -2.7620000   2.3050000  -4.2390000  -1.1330000   1.6340000
  -2.1830000  -1.5790000   0.4060000  -1.0840000  -3.5810000   0.1640000
  -0.1990000  -2.6030000   3.8410000   0.7090000  -3.0840000   0.9740000
   0.9480000  -1.4900000   1.7050000   2.6670000  -4.4140000   1.1440000
   5.0130000  -4.7330000   1.8240000   4.8200000  -3.5620000   3.1380000
   3.8910000  -5.0590000   3.1550000   3.5840000  -2.9540000  -0.3060000
   5.3460000  -0.3470000   2.3990000   4.1490000  -1.4100000   3.1040000
   3.6260000   0.1180000   2.4070000   5.6570000  -0.1470000  -0.0410000
   5.3850000  -1.8730000  -1.3110000   3.9060000   1.1290000  -1.5460000
   1.9190000   0.4190000  -2.3480000   2.1150000  -1.1400000  -1.4810000
   0.6680000  -0.1570000  -1.2300000   4.0140000   4.0700000   0.8000000
   1.7930000   4.0820000   1.6470000   2.5080000   2.5760000   2.2360000
   1.3710000   2.5510000   0.8820000   2.2890000   3.0040000  -1.4740000
   3.8410000   3.8040000  -1.6650000   1.2980000   5.0460000  -0.4890000
   2.8670000   5.8470000  -0.5010000   2.9220000   5.8100000  -2.9710000
   1.9710000   7.7520000  -1.8450000   1.0950000   7.4600000  -3.3520000
   0.3660000   7.0150000  -1.7950000   1.7740000   3.8220000  -3.6310000
  -0.7680000   5.5150000  -3.2970000  -1.4410000   3.8990000  -5.1200000
   0.0290000   2.0590000  -3.1360000  -0.4830000   0.4460000  -4.9250000
  -4.3640000   1.2150000  -3.7380000  -3.3530000   2.6490000  -3.7870000
  -4.2230000   2.1460000  -5.2420000  -2.3860000  -2.1270000   3.3330000
  -2.4250000   0.1130000   2.3050000  -0.7780000  -0.0480000   1.7740000
  -1.3130000  -0.5590000   4.7120000  -2.7290000   1.5380000   3.8640000
  -1.9000000   1.5050000   5.4020000  -0.7160000   2.6800000   2.8520000
  -1.5110000   3.6160000   4.1200000   1.1470000   3.3080000   4.0960000
   0.1050000   5.3010000   4.9280000  -0.0420000   5.3590000   6.6730000
   2.5610000   4.6880000   5.1920000   2.3730000   4.7040000   6.9400000
   1.8860000   6.8980000   6.8380000   0.6060000   1.0680000   6.0490000
   2.6780000   0.5010000   6.8930000   4.0950000   0.6080000   5.8290000
   2.8110000  -0.5510000   5.4470000   0.9260000   0.6270000   3.0340000
   0.9750000  -0.6370000   4.2250000
