%VERSION  VERSION_STAMP = V0001.000  DATE = 07/11/26  14:42:15                  
%FLAG TITLE                                                                     
%FORMAT(20a4)                                                                   
MOL                                                                             
%FLAG POINTERS                                                                  
%FORMAT(10I8)                                                                   
      79       8      44      38      95      65     197     186       0       0
     515       1      38      65     186      11      20      27      10       0
       0       0       0       0       0       0       0       0      79       0
       0
%FLAG ATOM_NAME                                                                 
%FORMAT(20a4)                                                                   
C1  C2  C3  C4  C5  C6  O1  C7  C8  O2  C9  C10 C11 C12 O3  C13 C14 C15 O4  C16 
O5  C17 C18 O6  C19 O7  C20 C21 C22 C23 C24 O8  C25 C26 C27 H1  H2  H3  H4  H5  
H6  H7  H8  H9  H10 H11 H12 H13 H14 H15 H16 H17 H18 H19 H20 H21 H22 H23 H24 H25 
H26 H27 H28 H29 H30 H31 H32 H33 H34 H35 H36 H37 H38 H39 H40 H41 H42 H43 H44 
%FLAG CHARGE                                                                    
%FORMAT(5E16.8)                                                                 
 -1.64182923E+00 -1.23364971E+00 -1.64182923E+00 -1.42862832E+00 -1.99351962E+00
  1.89694143E+00 -1.09661801E+01  2.54747754E+00 -2.24316513E+00 -1.09479578E+01
 -7.96314510E-01 -1.35573912E+00 -1.72018512E+00  2.95201260E+00 -1.08750686E+01
 -9.18403920E-01 -4.34055186E+00  1.06837345E+01 -9.47741823E+00  1.45413954E+00
 -1.10208470E+01 -2.43085482E+00  1.89694143E+00 -1.12577369E+01  2.77161183E+00
 -1.08386240E+01 -2.10285342E+00 -9.29337300E-01 -1.82405223E+00 -1.10244915E+00
  2.99027943E+00 -1.11484031E+01 -1.86596352E+00 -4.19112900E-01 -1.84227453E+00
  6.23202660E-01  6.23202660E-01  6.23202660E-01  8.32759110E-01  6.23202660E-01
  6.23202660E-01  6.23202660E-01  8.87426010E-01  8.87426010E-01  9.42092910E-01
  9.42092910E-01  1.59809571E+00  7.30714230E+00  8.14536810E-01  8.14536810E-01
  8.14536810E-01  7.58047680E+00  1.17898281E+00  1.01498211E+00  1.01498211E+00
  9.87648660E-01  9.87648660E-01  7.34358690E+00  2.80623420E+00  8.01781200E+00
  1.32476121E+00  1.32476121E+00  9.60315210E-01  7.58047680E+00  1.41587271E+00
  7.61692140E+00  1.27920546E+00  1.27920546E+00  7.84160236E-01  7.84160236E-01
  7.84160236E-01  1.50698421E+00  1.27009431E+00  7.70803290E+00  1.14253821E+00
  1.14253821E+00  9.36024884E-01  9.36024884E-01  9.36024884E-01
%FLAG ATOMIC_NUMBER                                                             
%FORMAT(10I8)                                                                   
       6       6       6       6       6       6       8       6       6       8
       6       6       6       6       8       6       6       6       8       6
       8       6       6       8       6       8       6       6       6       6
       6       8       6       6       6       1       1       1       1       1
       1       1       1       1       1       1       1       1       1       1
       1       1       1       1       1       1       1       1       1       1
       1       1       1       1       1       1       1       1       1       1
       1       1       1       1       1       1       1       1       1
%FLAG MASS                                                                      
%FORMAT(5E16.8)                                                                 
  1.20100000E+01  1.20100000E+01  1.20100000E+01  1.20100000E+01  1.20100000E+01
  1.20100000E+01  1.60000000E+01  1.20100000E+01  1.20100000E+01  1.60000000E+01
  1.20100000E+01  1.20100000E+01  1.20100000E+01  1.20100000E+01  1.60000000E+01
  1.20100000E+01  1.20100000E+01  1.20100000E+01  1.60000000E+01  1.20100000E+01
  1.60000000E+01  1.20100000E+01  1.20100000E+01  1.60000000E+01  1.20100000E+01
  1.60000000E+01  1.20100000E+01  1.20100000E+01  1.20100000E+01  1.20100000E+01
  1.20100000E+01  1.60000000E+01  1.20100000E+01  1.20100000E+01  1.20100000E+01
  1.00800000E+00  1.00800000E+00  1.00800000E+00  1.00800000E+00  1.00800000E+00
  1.00800000E+00  1.00800000E+00  1.00800000E+00  1.00800000E+00  1.00800000E+00
  1.00800000E+00  1.00800000E+00  1.00800000E+00  1.00800000E+00  1.00800000E+00
  1.00800000E+00  1.00800000E+00  1.00800000E+00  1.00800000E+00  1.00800000E+00
  1.00800000E+00  1.00800000E+00  1.00800000E+00  1.00800000E+00  1.00800000E+00
  1.00800000E+00  1.00800000E+00  1.00800000E+00  1.00800000E+00  1.00800000E+00
  1.00800000E+00  1.00800000E+00  1.00800000E+00  1.00800000E+00  1.00800000E+00
  1.00800000E+00  1.00800000E+00  1.00800000E+00  1.00800000E+00  1.00800000E+00
  1.00800000E+00  1.00800000E+00  1.00800000E+00  1.00800000E+00
%FLAG ATOM_TYPE_INDEX                                                           
%FORMAT(10I8)                                                                   
       1       1       1       1       1       1       2       1       1       2
       1       1       1       1       2       3       3       3       4       1
       2       1       1       2       1       2       1       1       1       1
       1       2       1       1       1       5       5       5       5       5
       5       5       5       5       5       5       6       7       5       5
       5       7       5       5       5       5       5       7       8       7
       5       5       6       7       6       7       5       5       5       5
       5       5       6       7       5       5       5       5       5
%FLAG NUMBER_EXCLUDED_ATOMS                                                     
%FORMAT(10I8)                                                                   
      13      15      11      16      13      18       8      20      10       9
      24      12      14      23       9      19      11      13       5      21
       9      14      13       8      13       7      13      16       8      15
       9       7      11      13       6       3       2       1       5       2
       1       1       3       2       2       1       1       1       2       1
       1       1       2       3       2       1       1       1       1       1
       2       1       2       1       3       1       1       1       2       1
       1       1       3       1       1       1       2       1       1
%FLAG NONBONDED_PARM_INDEX                                                      
%FORMAT(10I8)                                                                   
       1       2       4       7      11      16      22      29       2       3
       5       8      12      17      23      30       4       5       6       9
      13      18      24      31       7       8       9      10      14      19
      25      32      11      12      13      14      15      20      26      33
      16      17      18      19      20      21      27      34      22      23
      24      25      26      27      28      35      29      30      31      32
      33      34      35      36
%FLAG RESIDUE_LABEL                                                             
%FORMAT(20a4)                                                                   
MOL 
%FLAG RESIDUE_POINTER                                                           
%FORMAT(10I8)                                                                   
       1
%FLAG BOND_FORCE_CONSTANT                                                       
%FORMAT(5E16.8)                                                                 
  2.32500000E+02  3.75900000E+02  2.93400000E+02  3.75900000E+02  5.63500000E+02
  2.55600000E+02  4.60500000E+02  2.80400000E+02  3.91400000E+02  6.52600000E+02
  2.43200000E+02
%FLAG BOND_EQUIL_VALUE                                                          
%FORMAT(5E16.8)                                                                 
  1.53800000E+00  1.09700000E+00  1.42300000E+00  1.09700000E+00  9.73000000E-01
  1.51000000E+00  1.34600000E+00  1.48200000E+00  1.08800000E+00  1.21800000E+00
  1.52400000E+00
%FLAG ANGLE_FORCE_CONSTANT                                                      
%FORMAT(5E16.8)                                                                 
  6.49000000E+01  4.68000000E+01  8.46000000E+01  4.69000000E+01  4.90000000E+01
  6.25000000E+01  6.55000000E+01  6.61000000E+01  6.49000000E+01  8.55000000E+01
  6.76000000E+01  5.01000000E+01  4.75000000E+01  8.63000000E+01  6.49000000E+01
  4.70000000E+01  8.56000000E+01  6.53000000E+01  8.46000000E+01  3.90000000E+01
%FLAG ANGLE_EQUIL_VALUE                                                         
%FORMAT(5E16.8)                                                                 
  1.94621748E+00  1.91637234E+00  1.92317913E+00  1.91218355E+00  1.87204096E+00
  1.92440086E+00  1.94709015E+00  2.14937390E+00  2.01847415E+00  1.92597166E+00
  2.10172639E+00  2.09334880E+00  1.92614619E+00  2.15024656E+00  2.03226225E+00
  2.03261132E+00  1.89874451E+00  1.93801443E+00  2.15024656E+00  1.87762601E+00
%FLAG DIHEDRAL_FORCE_CONSTANT                                                   
%FORMAT(5E16.8)                                                                 
  8.00000000E-02  1.10000000E-01  2.90000000E-01  1.30000000E-01  2.10000000E-01
  1.55555556E-01  0.00000000E+00  5.10000000E-01  1.80000000E-01  1.13000000E+00
  9.00000000E-01  2.50000000E-01  0.00000000E+00  6.65000000E+00  3.10000000E-01
  1.66666667E-01  2.17500000E+00  2.97000000E+00  0.00000000E+00  1.00000000E-01
  7.40000000E-01  2.70000000E-01  5.50000000E-01  1.20000000E-01  1.13000000E-01
  1.10000000E+00  1.05000000E+01
%FLAG DIHEDRAL_PERIODICITY                                                      
%FORMAT(5E16.8)                                                                 
  3.00000000E+00  1.00000000E+00  2.00000000E+00  3.00000000E+00  3.00000000E+00
  3.00000000E+00  3.00000000E+00  1.00000000E+00  3.00000000E+00  2.00000000E+00
  3.00000000E+00  1.00000000E+00  2.00000000E+00  2.00000000E+00  2.00000000E+00
  3.00000000E+00  2.00000000E+00  2.00000000E+00  2.00000000E+00  3.00000000E+00
  1.00000000E+00  2.00000000E+00  3.00000000E+00  3.00000000E+00  3.00000000E+00
  2.00000000E+00  2.00000000E+00
%FLAG DIHEDRAL_PHASE                                                            
%FORMAT(5E16.8)                                                                 
  0.00000000E+00  0.00000000E+00  3.14159400E+00  0.00000000E+00  0.00000000E+00
  0.00000000E+00  0.00000000E+00  0.00000000E+00  0.00000000E+00  0.00000000E+00
  0.00000000E+00  0.00000000E+00  0.00000000E+00  3.14159400E+00  0.00000000E+00
  0.00000000E+00  3.14159400E+00  0.00000000E+00  3.14159400E+00  0.00000000E+00
  0.00000000E+00  3.14159400E+00  3.14159400E+00  0.00000000E+00  0.00000000E+00
  3.14159400E+00  3.14159400E+00
%FLAG SCEE_SCALE_FACTOR                                                         
%FORMAT(5E16.8)                                                                 
  1.20000000E+00  1.20000000E+00  1.20000000E+00  1.20000000E+00  1.20000000E+00
  1.20000000E+00  1.20000000E+00  1.20000000E+00  1.20000000E+00  1.20000000E+00
  1.20000000E+00  1.20000000E+00  1.20000000E+00  1.20000000E+00  1.20000000E+00
  1.20000000E+00  1.20000000E+00  1.20000000E+00  1.20000000E+00  1.20000000E+00
  1.20000000E+00  1.20000000E+00  1.20000000E+00  1.20000000E+00  1.20000000E+00
  0.00000000E+00  0.00000000E+00
%FLAG SCNB_SCALE_FACTOR                                                         
%FORMAT(5E16.8)                                                                 
  2.00000000E+00  2.00000000E+00  2.00000000E+00  2.00000000E+00  2.00000000E+00
  2.00000000E+00  2.00000000E+00  2.00000000E+00  2.00000000E+00  2.00000000E+00
  2.00000000E+00  2.00000000E+00  2.00000000E+00  2.00000000E+00  2.00000000E+00
  2.00000000E+00  2.00000000E+00  2.00000000E+00  2.00000000E+00  2.00000000E+00
  2.00000000E+00  2.00000000E+00  2.00000000E+00  2.00000000E+00  2.00000000E+00
  0.00000000E+00  0.00000000E+00
%FLAG SOLTY                                                                     
%FORMAT(5E16.8)                                                                 
  0.00000000E+00  0.00000000E+00  0.00000000E+00  0.00000000E+00  0.00000000E+00
  0.00000000E+00  0.00000000E+00  0.00000000E+00  0.00000000E+00  0.00000000E+00
%FLAG LENNARD_JONES_ACOEF                                                       
%FORMAT(5E16.8)                                                                 
  1.02073671E+06  7.18991463E+05  5.03152404E+05  8.43969952E+05  5.92438683E+05
  6.96551276E+05  6.30925504E+05  4.37717034E+05  5.17507491E+05  3.76435470E+05
  1.00235148E+05  6.80216136E+04  8.12662403E+04  5.68021765E+04  7.94617769E+03
  6.97998263E+04  4.69084694E+04  5.63013422E+04  3.86646725E+04  5.22955465E+03
  3.39005767E+03  3.03553352E+02  1.74176419E+02  2.25372434E+02  1.15813907E+02
  8.80612241E+00  4.36660257E+00  1.10360882E-05  9.27554496E+04  6.30298721E+04
  7.52549148E+04  5.27277400E+04  7.41026906E+03  4.88692384E+03  8.53132435E+00
  6.90855956E+03
%FLAG LENNARD_JONES_BCOEF                                                       
%FORMAT(5E16.8)                                                                 
  6.63431737E+02  5.36620538E+02  4.32634597E+02  5.90251928E+02  4.76608379E+02
  5.24668528E+02  5.62969425E+02  4.51916854E+02  4.98871431E+02  4.69350655E+02
  1.37787728E+02  1.09393126E+02  1.21392023E+02  1.11953944E+02  2.57122925E+01
  1.14981426E+02  9.08431526E+01  1.01040256E+02  9.23664132E+01  2.08590256E+01
  1.67944276E+01  5.22789272E+00  3.81654050E+00  4.40751799E+00  3.48534600E+00
  5.90150328E-01  4.15568027E-01  4.55498033E-04  1.24325688E+02  9.87712192E+01
  1.09570372E+02  1.01173582E+02  2.32899892E+01  1.89134207E+01  5.44840215E-01
  2.10929191E+01
%FLAG BONDS_INC_HYDROGEN                                                        
%FORMAT(10I8)                                                                   
       0     105       2       0     108       2       0     111       2       3
     114       2       6     117       2       6     120       2       6     123
       2       9     126       2       9     129       2      12     132       2
      12     135       2      15     138       4      18     141       5      24
     144       2      24     147       2      24     150       2      27     153
       5      30     156       2      33     159       2      33     162       2
      36     165       2      36     168       2      42     171       5      48
     174       9      60     177       5      63     180       2      63     183
       2      66     186       4      69     189       5      72     192       4
      75     195       5      78     198       2      78     201       2      84
     204       2      84     207       2      84     210       2      87     213
       2      90     216       4      93     219       5      96     222       2
      96     225       2     102     228       2     102     231       2     102
     234       2
%FLAG BONDS_WITHOUT_HYDROGEN                                                    
%FORMAT(10I8)                                                                   
       0       3       1       3       6       1       3       9       1       9
      12       1      12      15       1      15      18       3      15      21
       1      21      24       1      21      27       3      21      30       1
      30      33       1      30      99       1      33      36       1      36
      39       1      39      42       3      39      45       6      39      99
       1      45      48       7      45      87       6      48      51       8
      51      54      10      51      57      11      57      60       3      57
      63       1      57      81       1      63      66       1      66      69
       3      66      72       1      72      75       3      72      78       1
      78      81       1      81      84       1      81      87       1      87
      90       1      90      93       3      90      96       1      96      99
       1      99     102       1
%FLAG ANGLES_INC_HYDROGEN                                                       
%FORMAT(10I8)                                                                   
       0       3     114       2       3       0     105       2       3       0
     108       2       3       0     111       2       3       6     117       2
       3       6     120       2       3       6     123       2       3       9
     126       2       3       9     129       2       6       3     114       2
       9       3     114       2       9      12     132       2       9      12
     135       2      12       9     126       2      12       9     129       2
      12      15     138       4      15      12     132       2      15      12
     135       2      15      18     141       5      18      15     138       6
      21      15     138       4      21      24     144       2      21      24
     147       2      21      24     150       2      21      27     153       5
      21      30     156       2      30      33     159       2      30      33
     162       2      33      30     156       2      33      36     165       2
      33      36     168       2      36      33     159       2      36      33
     162       2      39      36     165       2      39      36     168       2
      39      42     171       5      45      48     174      12      45      87
     213      13      51      48     174      16      57      60     177       5
      57      63     180       2      57      63     183       2      63      66
     186       4      66      63     180       2      66      63     183       2
      66      69     189       5      66      72     192       4      69      66
     186       6      72      66     186       4      72      75     195       5
      72      78     198       2      72      78     201       2      75      72
     192       6      78      72     192       4      81      78     198       2
      81      78     201       2      81      84     204       2      81      84
     207       2      81      84     210       2      81      87     213       2
      87      90     216       4      90      87     213       2      90      93
     219       5      90      96     222       2      90      96     225       2
      93      90     216       6      96      90     216       4      99      96
     222       2      99      96     225       2      99     102     228       2
      99     102     231       2      99     102     234       2      99      30
     156       2     105       0     108      20     105       0     111      20
     108       0     111      20     117       6     120      20     117       6
     123      20     120       6     123      20     126       9     129      20
     132      12     135      20     144      24     147      20     144      24
     150      20     147      24     150      20     159      33     162      20
     165      36     168      20     180      63     183      20     198      78
     201      20     204      84     207      20     204      84     210      20
     207      84     210      20     222      96     225      20     228     102
     231      20     228     102     234      20     231     102     234      20
%FLAG ANGLES_WITHOUT_HYDROGEN                                                   
%FORMAT(10I8)                                                                   
       0       3       6       1       0       3       9       1       3       9
      12       1       6       3       9       1       9      12      15       1
      12      15      18       3      12      15      21       1      15      21
      24       1      15      21      27       3      15      21      30       1
      18      15      21       3      21      30      33       1      21      30
      99       1      24      21      27       3      24      21      30       1
      27      21      30       3      30      33      36       1      30      99
      96       1      30      99     102       1      30      99      39       1
      33      30      99       1      33      36      39       1      36      39
      42       3      36      39      45       7      36      39      99       1
      39      45      48       8      39      45      87       9      39      99
      96       1      39      99     102       1      42      39      45      10
      42      39      99       3      45      39      99       7      45      48
      51      11      45      87      81       7      45      87      90       7
      48      45      87       8      48      51      54      14      48      51
      57      15      51      57      60      17      51      57      63      18
      51      57      81      18      54      51      57      19      57      63
      66       1      57      81      78       1      57      81      84       1
      57      81      87       1      60      57      63       3      60      57
      81       3      63      57      81       1      63      66      69       3
      63      66      72       1      66      72      75       3      66      72
      78       1      69      66      72       3      72      78      81       1
      75      72      78       3      78      81      84       1      78      81
      87       1      81      87      90       1      84      81      87       1
      87      90      93       3      87      90      96       1      90      96
      99       1      93      90      96       3      96      99     102       1
%FLAG DIHEDRALS_INC_HYDROGEN                                                    
%FORMAT(10I8)                                                                   
       0       3       6     117       1       0       3       6     120       1
       0       3       6     123       1       0       3       9     126       1
       0       3       9     129       1       3       9      12     132       1
       3       9      12     135       1     105       0       3       6       1
     108       0       3       6       1     111       0       3       6       1
       6       3       9     126       1       6       3       9     129       1
     105       0       3       9       1     108       0       3       9       1
     111       0       3       9       1       9       3       6     117       1
       9       3       6     120       1       9       3       6     123       1
       9      12      15     138       6      12       9       3     114       1
      12      15      18     141       7      15      12       9     126       1
      15      12       9     129       1      15      21      24     144       1
      15      21      24     147       1      15      21      24     150       1
      15      21      27     153       7      15      21      30     156       1
      18      15      12     132       8      18      15     -12     132       9
      18      15      12     135       8      18      15     -12     135       9
      21      15      12     132       1      21      15      12     135       1
      21      15      18     141       7      21      30      33     159       1
      21      30      33     162       1      24      21      15     138       6
      24      21      27     153       7      24      21      30     156       1
      27      21      15     138      12      27      21     -15     138       7
      27      21      24     144       8      27      21     -24     144       9
      27      21      24     147       8      27      21     -24     147       9
      27      21      24     150       8      27      21     -24     150       9
      27      21      30     156       8      27      21     -30     156       9
      30      21      15     138       6      30      21      24     144       1
      30      21      24     147       1      30      21      24     150       1
      30      21      27     153       7      30      33      36     165       1
      30      33      36     168       1      30      99      96     222       1
      30      99      96     225       1      30      99     102     228       1
      30      99     102     231       1      30      99     102     234       1
      36      33      30     156       1      36      39      42     171       7
      39      36      33     159       1      39      36      33     162       1
      39      45      48     174      14      39      45      87     213      15
      39      99      96     222       1      39      99      96     225       1
      39      99     102     228       1      39      99     102     231       1
      39      99     102     234       1      39      99      30     156       1
      42      39      36     165       8      42      39     -36     165       9
      42      39      36     168       8      42      39     -36     168       9
      45      39      36     165       6      45      39      36     168       6
      45      39      42     171      16      45      87      90     216       6
      48      45      87     213      13      51      57      60     177      16
      51      57      63     180       6      51      57      63     183       6
      54      51      48     174      17      57      51      48     174      17
      57      63      66     186       6      57      81      78     198       1
      57      81      78     201       1      57      81      84     204       1
      57      81      84     207       1      57      81      84     210       1
      57      81      87     213       1      60      57      63     180       8
      60      57     -63     180       9      60      57      63     183       8
      60      57     -63     183       9      63      57      60     177       7
      63      66      69     189       7      63      66      72     192       6
      66      72      75     195       7      66      72      78     198       1
      66      72      78     201       1      69      66      63     180       8
      69      66     -63     180       9      69      66      63     183       8
      69      66     -63     183       9      69      66      72     192      12
      69      66     -72     192       7      72      66      63     180       1
      72      66      63     183       1      72      66      69     189       7
      75      72      66     186      12      75      72     -66     186       7
      75      72      78     198       8      75      72     -78     198       9
      75      72      78     201       8      75      72     -78     201       9
      78      72      66     186       6      78      72      75     195       7
      78      81      84     204       1      78      81      84     207       1
      78      81      84     210       1      78      81      87     213       1
      81      78      72     192       6      81      87      90     216       6
      81      57      60     177       7      81      57      63     180       1
      81      57      63     183       1      84      81      78     198       1
      84      81      78     201       1      84      81      87     213       1
      87      81      78     198       1      87      81      78     201       1
      87      81      84     204       1      87      81      84     207       1
      87      81      84     210       1      87      90      93     219       7
      87      90      96     222       1      87      90      96     225       1
      87      45      48     174      14      93      90      87     213       8
      93      90     -87     213       9      93      90      96     222       8
      93      90     -96     222       9      93      90      96     225       8
      93      90     -96     225       9      96      90      87     213       1
      96      90      93     219       7      96      99     102     228       1
      96      99     102     231       1      96      99     102     234       1
      96      99      30     156       1      99      96      90     216       6
      99      30      33     159       1      99      30      33     162       1
      99      39      36     165       1      99      39      36     168       1
      99      39      42     171       7     102      99      96     222       1
     102      99      96     225       1     102      99      30     156       1
     105       0       3     114      24     108       0       3     114      24
     111       0       3     114      24     114       3       6     117      24
     114       3       6     120      24     114       3       6     123      24
     114       3       9     126      24     114       3       9     129      24
     126       9      12     132      24     126       9      12     135      24
     129       9      12     132      24     129       9      12     135      24
     132      12      15     138       6     135      12      15     138       6
     138      15      18     141      25     156      30      33     159      24
     156      30      33     162      24     159      33      36     165      24
     159      33      36     168      24     162      33      36     165      24
     162      33      36     168      24     180      63      66     186       6
     183      63      66     186       6     186      66      69     189      25
     186      66      72     192       6     192      72      75     195      25
     192      72      78     198       6     192      72      78     201       6
     213      87      90     216       6     216      90      93     219      25
     216      90      96     222       6     216      90      96     225       6
      51      45     -48    -174      26
%FLAG DIHEDRALS_WITHOUT_HYDROGEN                                                
%FORMAT(10I8)                                                                   
       0       3       9      12       2       0       3      -9      12       3
       0       3      -9      12       4       3       9      12      15       2
       3       9     -12      15       3       3       9     -12      15       4
       6       3       9      12       2       6       3      -9      12       3
       6       3      -9      12       4       9      12      15      18       5
       9      12      15      21       2       9      12     -15      21       3
       9      12     -15      21       4      12      15      21      24       2
      12      15     -21      24       3      12      15     -21      24       4
      12      15      21      27       5      12      15      21      30       2
      12      15     -21      30       3      12      15     -21      30       4
      15      21      30      33       2      15      21     -30      33       3
      15      21     -30      33       4      15      21      30      99       2
      15      21     -30      99       3      15      21     -30      99       4
      18      15      21      24       5      18      15      21      27      10
      18      15     -21      27      11      18      15      21      30       5
      21      30      33      36       2      21      30     -33      36       3
      21      30     -33      36       4      21      30      99      96       2
      21      30     -99      96       3      21      30     -99      96       4
      21      30      99     102       2      21      30     -99     102       3
      21      30     -99     102       4      21      30      99      39       2
      21      30     -99      39       3      21      30     -99      39       4
      24      21      30      33       2      24      21     -30      33       3
      24      21     -30      33       4      24      21      30      99       2
      24      21     -30      99       3      24      21     -30      99       4
      27      21      30      33       5      27      21      30      99       5
      30      33     -36      39       2      30      33     -36      39       3
      30      33     -36      39       4      30      99      96      90       2
      30      99     -96      90       3      30      99     -96      90       4
      30      99     -39      36       2      30      99     -39      36       3
      30      99     -39      36       4      30      99      39      42       5
      30      99      39      45       6      33      30      99      96       2
      33      30     -99      96       3      33      30     -99      96       4
      33      30      99     102       2      33      30     -99     102       3
      33      30     -99     102       4      33      30     -99      39       2
      33      30     -99      39       3      33      30     -99      39       4
      33      36      39      42       5      33      36      39      45       6
      33      36     -39      99       2      33      36     -39      99       3
      33      36     -39      99       4      36      33     -30      99       2
      36      33     -30      99       3      36      33     -30      99       4
      36      39      45      48      13      36      39      45      87      13
      36      39      99      96       2      36      39     -99      96       3
      36      39     -99      96       4      36      39      99     102       2
      36      39     -99     102       3      36      39     -99     102       4
      39      45      48      51      14      39      45      87      81      13
      39      45      87      90      13      39      99     -96      90       2
      39      99     -96      90       3      39      99     -96      90       4
      42      39      45      48      13      42      39      45      87      13
      42      39      99      96       5      42      39      99     102       5
      45      39      99      96       6      45      39      99     102       6
      45      48      51      54      17      45      48      51      57      18
      45      87      81      78       6      45      87      81      84       6
      45      87     -81      57       6      45      87      90      93       6
      45      87     -90      96       6      48      45      39      99      13
      48      45      87      81      13      48      45      87      90      13
      48      51      57      60      19      48      51      57      63      19
      48      51     -57      81      19      51      48      45      87      14
      51      57      63      66      20      51      57      81      78      20
      51      57      81      84      20      51      57     -81      87      20
      54      51      57      60      19      54      51      57      63      21
      54      51     -57      63      22      54      51     -57      63      23
      54      51      57      81      21      54      51     -57      81      22
      54      51     -57      81      23      57      63      66      69       5
      57      63      66      72       2      57      63     -66      72       3
      57      63     -66      72       4      57      81     -78      72       2
      57      81     -78      72       3      57      81     -78      72       4
      57      81      87      90       2      57      81     -87      90       3
      57      81     -87      90       4      60      57      63      66       5
      60      57      81      78       5      60      57      81      84       5
      60      57      81      87       5      63      57      81      78       2
      63      57     -81      78       3      63      57     -81      78       4
      63      57      81      84       2      63      57     -81      84       3
      63      57     -81      84       4      63      57      81      87       2
      63      57     -81      87       3      63      57     -81      87       4
      63      66      72      75       5      63      66     -72      78       2
      63      66     -72      78       3      63      66     -72      78       4
      66      63      57      81       2      66      63     -57      81       3
      66      63     -57      81       4      66      72     -78      81       2
      66      72     -78      81       3      66      72     -78      81       4
      69      66      72      75      10      69      66     -72      75      11
      69      66      72      78       5      72      78      81      84       2
      72      78     -81      84       3      72      78     -81      84       4
      72      78      81      87       2      72      78     -81      87       3
      72      78     -81      87       4      75      72      78      81       5
      78      81      87      90       2      78      81     -87      90       3
      78      81     -87      90       4      81      87      90      93       5
      81      87      90      96       2      81      87     -90      96       3
      81      87     -90      96       4      84      81      87      90       2
      84      81     -87      90       3      84      81     -87      90       4
      87      90      96      99       2      87      90     -96      99       3
      87      90     -96      99       4      87      45     -39      99      13
      90      96      99     102       2      90      96     -99     102       3
      90      96     -99     102       4      93      90      96      99       5
      39      87     -45     -48      26      57      48     -51     -54      27
%FLAG EXCLUDED_ATOMS_LIST                                                       
%FORMAT(10I8)                                                                   
       2       3       4       5      36      37      38      39      40      41
      42      43      44       3       4       5       6      36      37      38
      39      40      41      42      43      44      45      46       4       5
      36      37      38      39      40      41      42      43      44       5
       6       7       8      36      37      38      39      40      41      42
      43      44      45      46      47       6       7       8       9      10
      11      39      43      44      45      46      47      48       7       8
       9      10      11      12      34      43      44      45      46      47
      48      49      50      51      52      53       8       9      10      11
      45      46      47      48       9      10      11      12      13      14
      33      34      35      45      46      47      48      49      50      51
      52      53      54      55      10      11      12      34      47      49
      50      51      52      53      11      12      34      47      49      50
      51      52      53      12      13      14      15      16      31      33
      34      35      47      49      50      51      52      53      54      55
      56      57      75      76      77      78      79      13      14      15
      16      33      34      35      53      54      55      56      57      14
      15      16      17      30      33      34      35      53      54      55
      56      57      58      15      16      17      18      28      30      31
      33      34      35      53      54      55      56      57      58      59
      72      75      76      77      78      79      16      17      30      33
      34      35      56      57      58      17      18      19      20      27
      28      29      30      31      32      33      34      35      56      57
      58      59      72      73      18      19      20      21      22      28
      30      31      34      59      72      19      20      21      22      23
      27      28      29      30      59      60      61      62      20      21
      22      28      59      21      22      23      24      25      27      28
      29      30      31      59      60      61      62      63      67      68
      69      70      71      72      22      23      27      28      29      30
      60      61      62      23      24      25      26      27      28      29
      30      60      61      62      63      64      65      24      25      26
      27      28      61      62      63      64      65      66      67      68
      25      26      27      61      62      63      64      65      26      27
      28      29      30      61      62      63      64      65      66      67
      68      27      28      63      65      66      67      68      28      29
      30      31      63      65      66      67      68      69      70      71
      72      29      30      31      32      33      60      61      62      65
      67      68      69      70      71      72      73      30      31      67
      68      69      70      71      72      31      32      33      34      59
      67      68      69      70      71      72      73      74      75      76
      32      33      34      35      72      73      74      75      76      33
      34      72      73      74      75      76      34      35      53      72
      73      74      75      76      77      78      79      35      53      54
      55      56      57      58      73      75      76      77      78      79
      53      75      76      77      78      79      37      38      39      38
      39      39      40      41      42      43      44      41      42      42
       0      44      45      46      45      46      46      47      47      48
       0      50      51      51       0       0      54      55      55      56
      57      56      57      57       0       0       0       0      62      63
      63      64      65       0      66      67      68       0      68       0
      70      71      71       0      73      74      75      76       0      76
       0      78      79      79       0
%FLAG HBOND_ACOEF                                                               
%FORMAT(5E16.8)                                                                 

%FLAG HBOND_BCOEF                                                               
%FORMAT(5E16.8)                                                                 

%FLAG HBCUT                                                                     
%FORMAT(5E16.8)                                                                 

%FLAG AMBER_ATOM_TYPE                                                           
%FORMAT(20a4)                                                                   
c3  c3  c3  c3  c3  c3  oh  c3  c3  oh  c3  c3  c3  c3  oh  c2  ce  c   o   c3  
oh  c3  c3  oh  c3  oh  c3  c3  c3  c3  c3  oh  c3  c3  c3  hc  hc  hc  hc  hc  
hc  hc  hc  hc  hc  hc  h1  ho  hc  hc  hc  ho  hc  hc  hc  hc  hc  ho  ha  ho  
hc  hc  h1  ho  h1  ho  hc  hc  hc  hc  hc  hc  h1  ho  hc  hc  hc  hc  hc  
%FLAG TREE_CHAIN_CLASSIFICATION                                                 
%FORMAT(20a4)                                                                   
BLA BLA BLA BLA BLA BLA BLA BLA BLA BLA BLA BLA BLA BLA BLA BLA BLA BLA BLA BLA 
BLA BLA BLA BLA BLA BLA BLA BLA BLA BLA BLA BLA BLA BLA BLA BLA BLA BLA BLA BLA 
BLA BLA BLA BLA BLA BLA BLA BLA BLA BLA BLA BLA BLA BLA BLA BLA BLA BLA BLA BLA 
BLA BLA BLA BLA BLA BLA BLA BLA BLA BLA BLA BLA BLA BLA BLA BLA BLA BLA BLA 
%FLAG JOIN_ARRAY                                                                
%FORMAT(10I8)                                                                   
       0       0       0       0       0       0       0       0       0       0
       0       0       0       0       0       0       0       0       0       0
       0       0       0       0       0       0       0       0       0       0
       0       0       0       0       0       0       0       0       0       0
       0       0       0       0       0       0       0       0       0       0
       0       0       0       0       0       0       0       0       0       0
       0       0       0       0       0       0       0       0       0       0
       0       0       0       0       0       0       0       0       0
%FLAG IROTAT                                                                    
%FORMAT(10I8)                                                                   
       0       0       0       0       0       0       0       0       0       0
       0       0       0       0       0       0       0       0       0       0
       0       0       0       0       0       0       0       0       0       0
       0       0       0       0       0       0       0       0       0       0
       0       0       0       0       0       0       0       0       0       0
       0       0       0       0       0       0       0       0       0       0
       0       0       0       0       0       0       0       0       0       0
       0       0       0       0       0       0       0       0       0
%FLAG RADIUS_SET                                                                
%FORMAT(1a80)                                                                   
modified Bondi radii (mbondi)                                                   
%FLAG RADII                                                                     
%FORMAT(5E16.8)                                                                 
  1.70000000E+00  1.70000000E+00  1.70000000E+00  1.70000000E+00  1.70000000E+00
  1.70000000E+00  1.50000000E+00  1.70000000E+00  1.70000000E+00  1.50000000E+00
  1.70000000E+00  1.70000000E+00  1.70000000E+00  1.70000000E+00  1.50000000E+00
  1.70000000E+00  1.70000000E+00  1.70000000E+00  1.50000000E+00  1.70000000E+00
  1.50000000E+00  1.70000000E+00  1.70000000E+00  1.50000000E+00  1.70000000E+00
  1.50000000E+00  1.70000000E+00  1.70000000E+00  1.70000000E+00  1.70000000E+00
  1.70000000E+00  1.50000000E+00  1.70000000E+00  1.70000000E+00  1.70000000E+00
  1.30000000E+00  1.30000000E+00  1.30000000E+00  1.30000000E+00  1.30000000E+00
  1.30000000E+00  1.30000000E+00  1.30000000E+00  1.30000000E+00  1.30000000E+00
  1.30000000E+00  1.30000000E+00  8.00000000E-01  1.30000000E+00  1.30000000E+00
  1.30000000E+00  8.00000000E-01  1.30000000E+00  1.30000000E+00  1.30000000E+00
  1.30000000E+00  1.30000000E+00  8.00000000E-01  1.30000000E+00  8.00000000E-01
  1.30000000E+00  1.30000000E+00  1.30000000E+00  8.00000000E-01  1.30000000E+00
  8.00000000E-01  1.30000000E+00  1.30000000E+00  1.30000000E+00  1.30000000E+00
  1.30000000E+00  1.30000000E+00  1.30000000E+00  8.00000000E-01  1.30000000E+00
  1.30000000E+00  1.30000000E+00  1.30000000E+00  1.30000000E+00
%FLAG SCREEN                                                                    
%FORMAT(5E16.8)                                                                 
  7.20000000E-01  7.20000000E-01  7.20000000E-01  7.20000000E-01  7.20000000E-01
  7.20000000E-01  8.50000000E-01  7.20000000E-01  7.20000000E-01  8.50000000E-01
  7.20000000E-01  7.20000000E-01  7.20000000E-01  7.20000000E-01  8.50000000E-01
  7.20000000E-01  7.20000000E-01  7.20000000E-01  8.50000000E-01  7.20000000E-01
  8.50000000E-01  7.20000000E-01  7.20000000E-01  8.50000000E-01  7.20000000E-01
  8.50000000E-01  7.20000000E-01  7.20000000E-01  7.20000000E-01  7.20000000E-01
  7.20000000E-01  8.50000000E-01  7.20000000E-01  7.20000000E-01  7.20000000E-01
  8.50000000E-01  8.50000000E-01  8.50000000E-01  8.50000000E-01  8.50000000E-01
  8.50000000E-01  8.50000000E-01  8.50000000E-01  8.50000000E-01  8.50000000E-01
  8.50000000E-01  8.50000000E-01  8.50000000E-01  8.50000000E-01  8.50000000E-01
  8.50000000E-01  8.50000000E-01  8.50000000E-01  8.50000000E-01  8.50000000E-01
  8.50000000E-01  8.50000000E-01  8.50000000E-01  8.50000000E-01  8.50000000E-01
  8.50000000E-01  8.50000000E-01  8.50000000E-01  8.50000000E-01  8.50000000E-01
  8.50000000E-01  8.50000000E-01  8.50000000E-01  8.50000000E-01  8.50000000E-01
  8.50000000E-01  8.50000000E-01  8.50000000E-01  8.50000000E-01  8.50000000E-01
  8.50000000E-01  8.50000000E-01  8.50000000E-01  8.50000000E-01
%FLAG IPOL                                                                      
%FORMAT(1I8)                                                                    
       0
