MOL
    79
  -0.3390000   5.9350000   6.6380000   0.1530000   5.2850000   5.3430000
   1.3890000   6.0260000   4.8310000  -0.9870000   5.2550000   4.3080000
  -0.6250000   4.4920000   3.0240000  -1.8360000   4.3350000   2.0910000
  -2.3480000   5.6330000   1.7240000  -1.5770000   3.5180000   0.7740000
  -0.4900000   4.1840000  -0.0790000  -2.7960000   3.6060000   0.0150000
  -1.2600000   2.0200000   1.0750000  -2.4110000   1.3130000   1.8600000
  -2.4240000  -0.1670000   1.4340000  -1.0930000  -0.3460000   0.7060000
  -0.0950000  -0.4260000   1.7440000  -0.8200000  -1.5290000  -0.1930000
  -1.7310000  -2.4750000  -0.4790000  -1.4420000  -3.5510000  -1.4620000
  -2.2380000  -4.4790000  -1.5850000  -0.1930000  -3.3950000  -2.3440000
  -0.5350000  -2.4090000  -3.3310000   0.1480000  -4.7090000  -3.0810000
   1.4420000  -4.6260000  -3.8960000   1.2400000  -3.8330000  -5.0750000
   2.6150000  -4.0230000  -3.1060000   3.6950000  -3.7570000  -4.0030000
   2.2430000  -2.7190000  -2.3890000   0.9900000  -2.8650000  -1.4850000
   1.3400000  -3.8830000  -0.3480000   0.6080000  -1.5090000  -0.7700000
   0.8920000  -0.1580000  -1.5010000   0.2620000  -0.0250000  -2.7680000
   0.4980000   1.0750000  -0.6450000  -0.9480000   0.9990000  -0.0770000
  -1.9810000   1.1180000  -1.2280000  -1.1990000   5.3930000   7.0440000
  -0.6420000   6.9750000   6.4710000   0.4470000   5.9290000   7.4010000
   0.4440000   4.2530000   5.5760000   1.1390000   7.0450000   4.5160000
   2.1540000   6.0910000   5.6120000   1.8400000   5.5070000   3.9800000
  -1.2830000   6.2820000   4.0580000  -1.8640000   4.7770000   4.7640000
   0.1670000   5.0410000   2.5030000  -0.2280000   3.5100000   3.2980000
  -2.6570000   3.8640000   2.6430000  -1.5900000   6.2240000   1.5730000
  -0.5060000   3.8100000  -1.1060000   0.5090000   4.0310000   0.3420000
  -0.6570000   5.2620000  -0.1750000  -3.1410000   4.5090000   0.1750000
  -0.3780000   2.0210000   1.7290000  -2.2290000   1.3980000   2.9380000
  -3.3930000   1.7540000   1.6610000  -3.2840000  -0.3540000   0.7820000
  -2.5230000  -0.8150000   2.3120000  -0.2860000  -1.2260000   2.2630000
  -2.7290000  -2.4920000  -0.0590000  -1.2430000  -2.7830000  -3.8910000
  -0.6750000  -4.9630000  -3.7640000   0.2240000  -5.5350000  -2.3650000
   1.7270000  -5.6230000  -4.2520000   0.6300000  -4.3210000  -5.6560000
   2.9830000  -4.7550000  -2.3790000   3.2720000  -3.3590000  -4.7920000
   2.0930000  -1.9430000  -3.1500000   3.1030000  -2.3770000  -1.7990000
   0.5380000  -3.9740000   0.3910000   1.5380000  -4.8910000  -0.7210000
   2.2390000  -3.5610000   0.1920000   1.2840000  -1.4660000   0.0980000
   1.9690000  -0.0840000  -1.6900000   0.0520000  -0.9160000  -3.1180000
   1.2140000   1.1660000   0.1820000   0.6150000   1.9710000  -1.2610000
  -1.7690000   1.9860000  -1.8600000  -3.0070000   1.2250000  -0.8620000
  -1.9890000   0.2400000  -1.8810000
