MOL
    52
  -3.9910000  -2.8830000   3.8710000  -4.1800000  -1.9410000   2.9370000
  -4.1890000  -2.2030000   1.4580000  -3.1370000  -1.4040000   0.7280000
  -3.4630000  -0.1890000   0.1090000  -2.4830000   0.5560000  -0.5540000
  -2.8890000   1.7240000  -1.1490000  -2.8300000   1.6030000  -2.5720000
  -1.1510000   0.1290000  -0.5520000  -0.1700000   0.8640000  -1.1580000
   0.2990000   1.9720000  -0.3640000   0.3670000   3.2070000  -1.2640000
   1.6710000   1.6840000   0.3150000   1.4630000   0.7480000   1.3880000
   2.8660000   1.2090000  -0.4890000   2.8110000   0.8290000  -1.8420000
   3.9170000   0.3510000  -2.5770000   3.8260000  -0.0050000  -3.7980000
   5.1270000   0.2930000  -1.8590000   5.2390000   0.6670000  -0.5140000
   6.3830000   0.6320000   0.2420000   7.5480000   0.1610000  -0.4220000
   4.1060000   1.1180000   0.1600000  -0.8320000  -1.1070000   0.0190000
   0.4540000  -1.5830000   0.0600000   0.8660000  -2.0740000  -1.2210000
  -1.8100000  -1.8540000   0.6800000  -3.8230000  -3.9230000   3.6080000
  -3.9860000  -2.6240000   4.9250000  -4.3340000  -0.9110000   3.2520000
  -5.1810000  -1.9540000   1.0630000  -4.0420000  -3.2690000   1.2410000
  -4.4840000   0.1850000   0.1310000  -3.3540000   2.4640000  -2.9980000
  -3.3370000   0.6960000  -2.9200000  -1.8000000   1.6270000  -2.9380000
  -0.4230000   2.1940000   0.4350000   0.7470000   4.0750000  -0.7180000
  -0.6290000   3.4550000  -1.6430000   0.9980000   3.0420000  -2.1430000
   1.9740000   2.6190000   0.8040000   1.4200000  -0.1270000   0.9490000
   1.8710000   0.8790000  -2.3870000   5.9920000  -0.0680000  -2.4090000
   7.4270000  -0.8770000  -0.7500000   8.3730000   0.1840000   0.2970000
   7.8220000   0.8140000  -1.2570000   4.1880000   1.3910000   1.2080000
   0.7220000  -1.3460000  -2.0240000   1.9320000  -2.3110000  -1.1600000
   0.3240000  -2.9960000  -1.4570000  -1.5250000  -2.7840000   1.1660000
