%VERSION  VERSION_STAMP = V0001.000  DATE = 07/11/26  14:10:51                  
%FLAG TITLE                                                                     
%FORMAT(20a4)                                                                   
MOL                                                                             
%FLAG POINTERS                                                                  
%FORMAT(10I8)                                                                   
      52       9      25      28      51      38      76      58       0       0
     258       1      28      38      58      14      26      19      10       0
       0       0       0       0       0       0       0       0      52       0
       0
%FLAG ATOM_NAME                                                                 
%FORMAT(20a4)                                                                   
C1  C2  C3  C4  C5  C6  O1  C7  C8  O2  C9  C10 C11 O3  C12 C13 C14 O4  C15 C16 
O5  C17 C18 C19 O6  C20 C21 H1  H2  H3  H4  H5  H6  H7  H8  H9  H10 H11 H12 H13 
H14 H15 H16 H17 H18 H19 H20 H21 H22 H23 H24 H25 
%FLAG CHARGE                                                                    
%FORMAT(5E16.8)                                                                 
 -4.35512970E+00 -2.68232256E+00 -8.92892700E-02 -1.26280539E+00 -2.84267880E+00
  1.99716408E+00 -6.43064967E+00  1.85320791E+00  9.12937230E-01 -5.88398067E+00
  2.22494283E+00 -2.22494283E+00  3.43308132E+00 -1.12759592E+01 -7.70803290E-01
 -5.84935830E+00  1.03630220E+01 -1.44994841E+01 -7.34358690E+00  3.19072473E+00
 -6.55820577E+00  2.34521001E+00 -6.21380430E+00  1.99716408E+00 -6.43064967E+00
  1.85320791E+00 -2.84267880E+00  1.94067495E+00  1.94067495E+00  2.31423210E+00
  9.42092910E-01  9.42092910E-01  2.54201085E+00  1.03624753E+00  1.03624753E+00
  1.03624753E+00  9.96759810E-01  8.50981410E-01  8.50981410E-01  8.50981410E-01
  1.17898281E+00  7.52580990E+00  2.04089760E+00  2.04089760E+00  4.07578184E-01
  4.07578184E-01  4.07578184E-01  2.20489830E+00  1.03624753E+00  1.03624753E+00
  1.03624753E+00  2.54201085E+00
%FLAG ATOMIC_NUMBER                                                             
%FORMAT(10I8)                                                                   
       6       6       6       6       6       6       8       6       6       8
       6       6       6       8       6       6       6       8       6       6
       8       6       6       6       8       6       6       1       1       1
       1       1       1       1       1       1       1       1       1       1
       1       1       1       1       1       1       1       1       1       1
       1       1
%FLAG MASS                                                                      
%FORMAT(5E16.8)                                                                 
  1.20100000E+01  1.20100000E+01  1.20100000E+01  1.20100000E+01  1.20100000E+01
  1.20100000E+01  1.60000000E+01  1.20100000E+01  1.20100000E+01  1.60000000E+01
  1.20100000E+01  1.20100000E+01  1.20100000E+01  1.60000000E+01  1.20100000E+01
  1.20100000E+01  1.20100000E+01  1.60000000E+01  1.20100000E+01  1.20100000E+01
  1.60000000E+01  1.20100000E+01  1.20100000E+01  1.20100000E+01  1.60000000E+01
  1.20100000E+01  1.20100000E+01  1.00800000E+00  1.00800000E+00  1.00800000E+00
  1.00800000E+00  1.00800000E+00  1.00800000E+00  1.00800000E+00  1.00800000E+00
  1.00800000E+00  1.00800000E+00  1.00800000E+00  1.00800000E+00  1.00800000E+00
  1.00800000E+00  1.00800000E+00  1.00800000E+00  1.00800000E+00  1.00800000E+00
  1.00800000E+00  1.00800000E+00  1.00800000E+00  1.00800000E+00  1.00800000E+00
  1.00800000E+00  1.00800000E+00
%FLAG ATOM_TYPE_INDEX                                                           
%FORMAT(10I8)                                                                   
       1       1       2       1       1       1       3       2       1       3
       2       2       2       4       1       1       1       5       1       1
       3       2       1       1       3       2       1       6       6       6
       7       7       6       8       8       8       8       7       7       7
       8       9       6       6       8       8       8       6       8       8
       8       6
%FLAG NUMBER_EXCLUDED_ATOMS                                                     
%FORMAT(10I8)                                                                   
       8       9      12      12      11      12       8       4      11      13
      13       8      14       6      12       9       7       4       7       8
       7       4       4       7       6       4       4       2       1       2
       1       1       1       2       1       1       4       2       1       1
       1       1       1       1       2       1       1       1       2       1
       1       1
%FLAG NONBONDED_PARM_INDEX                                                      
%FORMAT(10I8)                                                                   
       1       2       4       7      11      16      22      29      37       2
       3       5       8      12      17      23      30      38       4       5
       6       9      13      18      24      31      39       7       8       9
      10      14      19      25      32      40      11      12      13      14
      15      20      26      33      41      16      17      18      19      20
      21      27      34      42      22      23      24      25      26      27
      28      35      43      29      30      31      32      33      34      35
      36      44      37      38      39      40      41      42      43      44
      45
%FLAG RESIDUE_LABEL                                                             
%FORMAT(20a4)                                                                   
MOL 
%FLAG RESIDUE_POINTER                                                           
%FORMAT(10I8)                                                                   
       1
%FLAG BOND_FORCE_CONSTANT                                                       
%FORMAT(5E16.8)                                                                 
  4.81800000E+02  3.92200000E+02  2.55600000E+02  2.50300000E+02  3.75900000E+02
  3.78600000E+02  3.95700000E+02  3.57500000E+02  2.84800000E+02  3.75900000E+02
  2.32500000E+02  2.93400000E+02  5.63500000E+02  6.06500000E+02
%FLAG BOND_EQUIL_VALUE                                                          
%FORMAT(5E16.8)                                                                 
  1.33400000E+00  1.08800000E+00  1.51000000E+00  1.51600000E+00  1.09700000E+00
  1.39800000E+00  1.08600000E+00  1.37000000E+00  1.43200000E+00  1.09700000E+00
  1.53800000E+00  1.42300000E+00  9.73000000E-01  1.23600000E+00
%FLAG ANGLE_FORCE_CONSTANT                                                      
%FORMAT(5E16.8)                                                                 
  6.61000000E+01  5.04000000E+01  6.57000000E+01  4.75000000E+01  4.64000000E+01
  6.56000000E+01  4.73000000E+01  6.88000000E+01  4.87000000E+01  8.73000000E+01
  6.61000000E+01  6.24000000E+01  8.53000000E+01  4.68000000E+01  8.46000000E+01
  6.52000000E+01  4.69000000E+01  6.49000000E+01  4.90000000E+01  8.52000000E+01
  6.25000000E+01  4.75000000E+01  8.95000000E+01  3.77000000E+01  3.90000000E+01
  3.88000000E+01
%FLAG ANGLE_EQUIL_VALUE                                                         
%FORMAT(5E16.8)                                                                 
  2.15775148E+00  2.10190092E+00  1.96332172E+00  1.92614619E+00  2.01899774E+00
  2.10783504E+00  1.92806605E+00  2.09474507E+00  2.09230160E+00  2.08043336E+00
  2.05879127E+00  1.91602327E+00  1.88443280E+00  1.91637234E+00  1.92317913E+00
  1.95599133E+00  1.91218355E+00  1.94621748E+00  1.87204096E+00  1.93068405E+00
  1.92440086E+00  1.91218355E+00  2.15129376E+00  2.04029077E+00  1.87762601E+00
  1.89298492E+00
%FLAG DIHEDRAL_FORCE_CONSTANT                                                   
%FORMAT(5E16.8)                                                                 
  0.00000000E+00  1.47000000E+00  3.60000000E-01  6.65000000E+00  3.62500000E+00
  0.00000000E+00  1.61000000E+00  3.83333333E-01  2.50000000E-01  0.00000000E+00
  2.00000000E-02  1.01000000E+00  1.55555556E-01  2.45000000E-01  2.10000000E-01
  8.00000000E-02  1.66666667E-01  1.13000000E-01  1.10000000E+00
%FLAG DIHEDRAL_PERIODICITY                                                      
%FORMAT(5E16.8)                                                                 
  2.00000000E+00  1.00000000E+00  3.00000000E+00  2.00000000E+00  2.00000000E+00
  2.00000000E+00  2.00000000E+00  3.00000000E+00  1.00000000E+00  3.00000000E+00
  1.00000000E+00  3.00000000E+00  3.00000000E+00  2.00000000E+00  3.00000000E+00
  3.00000000E+00  3.00000000E+00  3.00000000E+00  2.00000000E+00
%FLAG DIHEDRAL_PHASE                                                            
%FORMAT(5E16.8)                                                                 
  0.00000000E+00  0.00000000E+00  3.14159400E+00  3.14159400E+00  3.14159400E+00
  3.14159400E+00  3.14159400E+00  0.00000000E+00  0.00000000E+00  0.00000000E+00
  3.14159400E+00  0.00000000E+00  0.00000000E+00  3.14159400E+00  0.00000000E+00
  0.00000000E+00  0.00000000E+00  0.00000000E+00  3.14159400E+00
%FLAG SCEE_SCALE_FACTOR                                                         
%FORMAT(5E16.8)                                                                 
  1.20000000E+00  1.20000000E+00  1.20000000E+00  1.20000000E+00  1.20000000E+00
  1.20000000E+00  1.20000000E+00  1.20000000E+00  1.20000000E+00  1.20000000E+00
  1.20000000E+00  1.20000000E+00  1.20000000E+00  1.20000000E+00  1.20000000E+00
  1.20000000E+00  1.20000000E+00  1.20000000E+00  0.00000000E+00
%FLAG SCNB_SCALE_FACTOR                                                         
%FORMAT(5E16.8)                                                                 
  2.00000000E+00  2.00000000E+00  2.00000000E+00  2.00000000E+00  2.00000000E+00
  2.00000000E+00  2.00000000E+00  2.00000000E+00  2.00000000E+00  2.00000000E+00
  2.00000000E+00  2.00000000E+00  2.00000000E+00  2.00000000E+00  2.00000000E+00
  2.00000000E+00  2.00000000E+00  2.00000000E+00  0.00000000E+00
%FLAG SOLTY                                                                     
%FORMAT(5E16.8)                                                                 
  0.00000000E+00  0.00000000E+00  0.00000000E+00  0.00000000E+00  0.00000000E+00
  0.00000000E+00  0.00000000E+00  0.00000000E+00  0.00000000E+00  0.00000000E+00
%FLAG LENNARD_JONES_ACOEF                                                       
%FORMAT(5E16.8)                                                                 
  6.96551276E+05  8.43969952E+05  1.02073671E+06  4.46121722E+05  5.42502534E+05
  2.83662575E+05  5.92438683E+05  7.18991463E+05  3.78207390E+05  5.03152404E+05
  5.17507491E+05  6.30925504E+05  3.27367585E+05  4.37717034E+05  3.76435470E+05
  7.52549148E+04  9.27554496E+04  4.65732396E+04  6.30298721E+04  5.27277400E+04
  6.90855956E+03  8.12662403E+04  1.00235148E+05  5.02224902E+04  6.80216136E+04
  5.68021765E+04  7.41026906E+03  7.94617769E+03  5.63013422E+04  6.97998263E+04
  3.44374471E+04  4.69084694E+04  3.86646725E+04  4.88692384E+03  5.22955465E+03
  3.39005767E+03  2.25372434E+02  3.03553352E+02  1.16469347E+02  1.74176419E+02
  1.15813907E+02  8.53132435E+00  8.80612241E+00  4.36660257E+00  1.10360882E-05
%FLAG LENNARD_JONES_BCOEF                                                       
%FORMAT(5E16.8)                                                                 
  5.24668528E+02  5.90251928E+02  6.63431737E+02  3.88758656E+02  4.38146883E+02
  2.87011518E+02  4.76608379E+02  5.36620538E+02  3.52573684E+02  4.32634597E+02
  4.98871431E+02  5.62969425E+02  3.67361018E+02  4.51916854E+02  4.69350655E+02
  1.09570372E+02  1.24325688E+02  7.98066064E+01  9.87712192E+01  1.01173582E+02
  2.10929191E+01  1.21392023E+02  1.37787728E+02  8.83545880E+01  1.09393126E+02
  1.11953944E+02  2.32899892E+01  2.57122925E+01  1.01040256E+02  1.14981426E+02
  7.31636661E+01  9.08431526E+01  9.23664132E+01  1.89134207E+01  2.08590256E+01
  1.67944276E+01  4.40751799E+00  5.22789272E+00  2.93355636E+00  3.81654050E+00
  3.48534600E+00  5.44840215E-01  5.90150328E-01  4.15568027E-01  4.55498033E-04
%FLAG BONDS_INC_HYDROGEN                                                        
%FORMAT(10I8)                                                                   
       0      81       2       0      84       2       3      87       2       6
      90       5       6      93       5      12      96       7      21      99
      10      21     102      10      21     105      10      30     108      10
      33     111       5      33     114       5      33     117       5      36
     120      10      39     123      13      45     126       7      54     129
       7      63     132      10      63     135      10      63     138      10
      66     141       7      75     144      10      75     147      10      75
     150      10      78     153       7
%FLAG BONDS_WITHOUT_HYDROGEN                                                    
%FORMAT(10I8)                                                                   
       0       3       1       3       6       3       6       9       4       9
      12       6       9      78       6      12      15       6      15      18
       8      15      24       6      18      21       9      24      27       8
      24      69       6      27      30       9      30      33      11      30
      36      11      36      39      12      36      42       4      42      45
       6      42      66       6      45      48       6      48      51      14
      48      54       6      54      57       6      57      60       8      57
      66       6      60      63       9      69      72       8      69      78
       6      72      75       9
%FLAG ANGLES_INC_HYDROGEN                                                       
%FORMAT(10I8)                                                                   
       0       3      87       2       3       0      81       2       3       0
      84       2       3       6      90       4       3       6      93       4
       6       3      87       5       9       6      90       7       9       6
      93       7       9      12      96       9       9      78     153       9
      15      12      96       9      18      21      99      12      18      21
     102      12      18      21     105      12      27      30     108      12
      30      33     111      14      30      33     114      14      30      33
     117      14      30      36     120      17      33      30     108      17
      36      30     108      17      36      39     123      19      39      36
     120      21      42      36     120      22      42      45     126       9
      42      66     141       9      48      45     126       9      48      54
     129       9      57      54     129       9      57      66     141       9
      60      63     132      12      60      63     135      12      60      63
     138      12      69      78     153       9      72      75     144      12
      72      75     147      12      72      75     150      12      81       0
      84      24      90       6      93      25      99      21     102      26
      99      21     105      26     102      21     105      26     111      33
     114      25     111      33     117      25     114      33     117      25
     132      63     135      26     132      63     138      26     135      63
     138      26     144      75     147      26     144      75     150      26
     147      75     150      26
%FLAG ANGLES_WITHOUT_HYDROGEN                                                   
%FORMAT(10I8)                                                                   
       0       3       6       1       3       6       9       3       6       9
      12       6       6       9      78       6       9      12      15       8
       9      78      69       8      12       9      78       8      12      15
      18      10      12      15      24       8      15      18      21      11
      15      24      27      10      15      24      69       8      18      15
      24      10      24      27      30      11      24      69      72      10
      24      69      78       8      27      24      69      10      27      30
      33      13      27      30      36      13      30      36      39      15
      30      36      42      16      33      30      36      18      36      42
      45       6      36      42      66       6      39      36      42      20
      42      45      48       8      42      66      57       8      45      42
      66       8      45      48      51      23      45      48      54       8
      48      54      57       8      51      48      54      23      54      57
      60      10      54      57      66       8      57      60      63      11
      60      57      66      10      69      72      75      11      72      69
      78      10
%FLAG DIHEDRALS_INC_HYDROGEN                                                    
%FORMAT(10I8)                                                                   
       0       3       6      90       2       0       3      -6      90       3
       0       3       6      93       2       0       3      -6      93       3
      81       0       3       6       4      84       0       3       6       4
       6       9      12      96       5       6       9      78     153       5
       9       6       3      87       1      12       9       6      90       6
      12       9       6      93       6      12       9      78     153       5
      15      18      21      99       8      15      18      21     102       8
      15      18      21     105       8      18      15      12      96       5
      24      15      12      96       5      24      27      30     108       8
      24      69      78     153       5      27      30      33     111       9
      27      30     -33     111      10      27      30      33     114       9
      27      30     -33     114      10      27      30      33     117       9
      27      30     -33     117      10      27      30      36     120       9
      27      30     -36     120      10      30      36      39     123      10
      33      30      36     120      13      36      30      33     111      16
      36      30      33     114      16      36      30      33     117      16
      36      42      45     126       5      36      42      66     141       5
      39      36      30     108       9      39      36     -30     108      10
      42      36      30     108      13      42      36      39     123      17
      45      42      36     120       1      45      42      66     141       5
      45      48      54     129       5      51      48      45     126       5
      51      48      54     129       5      54      48      45     126       5
      54      57      66     141       5      57      60      63     132       8
      57      60      63     135       8      57      60      63     138       8
      60      57      54     129       5      60      57      66     141       5
      66      57      54     129       5      66      42      36     120       1
      66      42      45     126       5      69      72      75     144       8
      69      72      75     147       8      69      72      75     150       8
      72      69      78     153       5      78       9       6      90       6
      78       9       6      93       6      78       9      12      96       5
      81       0       3      87       4      84       0       3      87       4
      87       3       6      90       1      87       3       6      93       1
     108      30      33     111      13     108      30      33     114      13
     108      30      33     117      13     108      30      36     120      13
     120      36      39     123      18      84       0     -81      -3      19
       0       6      -3     -87      19       9      15     -12     -96      19
      42      48     -45    -126      19      48      57     -54    -129      19
      42      57     -66    -141      19       9      69     -78    -153      19
%FLAG DIHEDRALS_WITHOUT_HYDROGEN                                                
%FORMAT(10I8)                                                                   
       0       3       6       9       1       3       6       9      12       1
       3       6       9      78       1       6       9      12      15       5
       6       9      78      69       5       9      12      15      18       5
       9      12      15      24       5       9      78     -69      24       5
       9      78      69      72       5      12       9      78      69       5
      12      15      18      21       7      12      15      24      27       5
      12      15     -24      69       5      15      12       9      78       5
      15      24      27      30       7      15      24      69      72       5
      15      24     -69      78       5      18      15      24      27       5
      18      15      24      69       5      21      18      15      24       7
      24      27      30      33       8      24      27      30      36       8
      24      69      72      75       7      27      24      69      72       5
      27      24      69      78       5      27      30      36      39      11
      27      30     -36      39       1      27      30     -36      39      12
      27      30      36      42      13      30      27      24      69       7
      30      36      42      45      14      30      36      42      66      14
      33      30      36      39      15      33      30      36      42      13
      36      42      45      48       5      36      42      66      57       5
      39      36      42      45       1      39      36      42      66       1
      42      45      48      51       5      42      45      48      54       5
      42      66     -57      54       5      42      66      57      60       5
      45      42      66      57       5      45      48     -54      57       5
      48      45      42      66       5      48      54      57      60       5
      48      54     -57      66       5      51      48      54      57       5
      54      57      60      63       7      63      60      57      66       7
      75      72      69      78       7      12      78      -9      -6      19
      12      24     -15     -18      19      15      69     -24     -27      19
      36      45     -42     -66      19      45      54     -48     -51      19
      54      66     -57     -60      19      24      78     -69     -72      19
%FLAG EXCLUDED_ATOMS_LIST                                                       
%FORMAT(10I8)                                                                   
       2       3       4      28      29      30      31      32       3       4
       5      27      28      29      30      31      32       4       5       6
      24      27      28      29      30      31      32      33      52       5
       6       7       9      24      25      27      30      31      32      33
      52       6       7       8       9      10      24      27      31      32
      33      52       7       8       9      10      11      24      25      27
      33      34      35      36       8       9      10      24      33      34
      35      36       9      34      35      36      10      11      12      13
      24      25      26      27      33      37      52      11      12      13
      14      15      24      25      27      37      38      39      40      41
      12      13      14      15      16      23      24      37      38      39
      40      41      42      13      14      15      37      38      39      40
      41      14      15      16      17      20      23      37      38      39
      40      41      42      43      48      15      16      23      37      41
      42      16      17      18      19      20      21      23      37      41
      42      43      48      17      18      19      20      23      41      43
      44      48      18      19      20      21      23      43      44      19
      20      43      44      20      21      22      23      43      44      48
      21      22      23      44      45      46      47      48      22      23
      44      45      46      47      48      23      45      46      47      41
      43      44      48      25      26      27      49      50      51      52
      26      27      49      50      51      52      27      49      50      51
      31      32      33      52      29      30      30      31      32      32
       0       0      35      36      36       0      38      39      40      41
      39      40      40       0      42       0       0       0      46      47
      47       0       0      50      51      51       0       0
%FLAG HBOND_ACOEF                                                               
%FORMAT(5E16.8)                                                                 

%FLAG HBOND_BCOEF                                                               
%FORMAT(5E16.8)                                                                 

%FLAG HBCUT                                                                     
%FORMAT(5E16.8)                                                                 

%FLAG AMBER_ATOM_TYPE                                                           
%FORMAT(20a4)                                                                   
c2  c2  c3  ca  ca  ca  os  c3  ca  os  c3  c3  c3  oh  ca  ca  ca  o   ca  ca  
os  c3  ca  ca  os  c3  ca  ha  ha  ha  hc  hc  ha  h1  h1  h1  h1  hc  hc  hc  
h1  ho  ha  ha  h1  h1  h1  ha  h1  h1  h1  ha  
%FLAG TREE_CHAIN_CLASSIFICATION                                                 
%FORMAT(20a4)                                                                   
BLA BLA BLA BLA BLA BLA BLA BLA BLA BLA BLA BLA BLA BLA BLA BLA BLA BLA BLA BLA 
BLA BLA BLA BLA BLA BLA BLA BLA BLA BLA BLA BLA BLA BLA BLA BLA BLA BLA BLA BLA 
BLA BLA BLA BLA BLA BLA BLA BLA BLA BLA BLA BLA 
%FLAG JOIN_ARRAY                                                                
%FORMAT(10I8)                                                                   
       0       0       0       0       0       0       0       0       0       0
       0       0       0       0       0       0       0       0       0       0
       0       0       0       0       0       0       0       0       0       0
       0       0       0       0       0       0       0       0       0       0
       0       0       0       0       0       0       0       0       0       0
       0       0
%FLAG IROTAT                                                                    
%FORMAT(10I8)                                                                   
       0       0       0       0       0       0       0       0       0       0
       0       0       0       0       0       0       0       0       0       0
       0       0       0       0       0       0       0       0       0       0
       0       0       0       0       0       0       0       0       0       0
       0       0       0       0       0       0       0       0       0       0
       0       0
%FLAG RADIUS_SET                                                                
%FORMAT(1a80)                                                                   
modified Bondi radii (mbondi)                                                   
%FLAG RADII                                                                     
%FORMAT(5E16.8)                                                                 
  1.70000000E+00  1.70000000E+00  1.70000000E+00  1.70000000E+00  1.70000000E+00
  1.70000000E+00  1.50000000E+00  1.70000000E+00  1.70000000E+00  1.50000000E+00
  1.70000000E+00  1.70000000E+00  1.70000000E+00  1.50000000E+00  1.70000000E+00
  1.70000000E+00  1.70000000E+00  1.50000000E+00  1.70000000E+00  1.70000000E+00
  1.50000000E+00  1.70000000E+00  1.70000000E+00  1.70000000E+00  1.50000000E+00
  1.70000000E+00  1.70000000E+00  1.30000000E+00  1.30000000E+00  1.30000000E+00
  1.30000000E+00  1.30000000E+00  1.30000000E+00  1.30000000E+00  1.30000000E+00
  1.30000000E+00  1.30000000E+00  1.30000000E+00  1.30000000E+00  1.30000000E+00
  1.30000000E+00  8.00000000E-01  1.30000000E+00  1.30000000E+00  1.30000000E+00
  1.30000000E+00  1.30000000E+00  1.30000000E+00  1.30000000E+00  1.30000000E+00
  1.30000000E+00  1.30000000E+00
%FLAG SCREEN                                                                    
%FORMAT(5E16.8)                                                                 
  7.20000000E-01  7.20000000E-01  7.20000000E-01  7.20000000E-01  7.20000000E-01
  7.20000000E-01  8.50000000E-01  7.20000000E-01  7.20000000E-01  8.50000000E-01
  7.20000000E-01  7.20000000E-01  7.20000000E-01  8.50000000E-01  7.20000000E-01
  7.20000000E-01  7.20000000E-01  8.50000000E-01  7.20000000E-01  7.20000000E-01
  8.50000000E-01  7.20000000E-01  7.20000000E-01  7.20000000E-01  8.50000000E-01
  7.20000000E-01  7.20000000E-01  8.50000000E-01  8.50000000E-01  8.50000000E-01
  8.50000000E-01  8.50000000E-01  8.50000000E-01  8.50000000E-01  8.50000000E-01
  8.50000000E-01  8.50000000E-01  8.50000000E-01  8.50000000E-01  8.50000000E-01
  8.50000000E-01  8.50000000E-01  8.50000000E-01  8.50000000E-01  8.50000000E-01
  8.50000000E-01  8.50000000E-01  8.50000000E-01  8.50000000E-01  8.50000000E-01
  8.50000000E-01  8.50000000E-01
%FLAG IPOL                                                                      
%FORMAT(1I8)                                                                    
       0
