%VERSION  VERSION_STAMP = V0001.000  DATE = 07/11/26  14:42:48                  
%FLAG TITLE                                                                     
%FORMAT(20a4)                                                                   
MOL                                                                             
%FLAG POINTERS                                                                  
%FORMAT(10I8)                                                                   
      29       8      13      16      32      21      54      49       0       0
     157       1      16      21      49      10      21      31       8       0
       0       0       0       0       0       0       0       0      29       0
       0
%FLAG ATOM_NAME                                                                 
%FORMAT(20a4)                                                                   
C1  C2  C3  S1  N1  O1  C4  O2  N2  C5  C6  C7  C8  C9  O3  O4  H1  H2  H3  H4  
H5  H6  H7  H8  H9  H10 H11 H12 H13 
%FLAG CHARGE                                                                    
%FORMAT(5E16.8)                                                                 
 -1.69649613E+00 -2.32698771E+00  5.95869210E-01 -3.25450278E+00  1.43591724E+00
 -3.03036849E+00  1.22289855E+01 -1.24658754E+01 -7.83194454E+00  1.82223000E+00
 -1.53796212E+00 -1.41040602E+00 -5.33913390E-01  1.64292257E+01 -1.50297530E+01
 -1.50297530E+01  9.66383236E-01  9.66383236E-01  9.66383236E-01  2.38165461E+00
  1.48876191E+00  1.48876191E+00  6.86980710E-01  6.86980710E-01  5.59424610E-01
  5.59424610E-01  9.32981760E-01  9.32981760E-01  8.32759110E-01
%FLAG ATOMIC_NUMBER                                                             
%FORMAT(10I8)                                                                   
       6       6       6      16       7       8       6       8       7       6
       6       6       6       6       8       8       1       1       1       1
       1       1       1       1       1       1       1       1       1
%FLAG MASS                                                                      
%FORMAT(5E16.8)                                                                 
  1.20100000E+01  1.20100000E+01  1.20100000E+01  3.20600000E+01  1.40100000E+01
  1.60000000E+01  1.20100000E+01  1.60000000E+01  1.40100000E+01  1.20100000E+01
  1.20100000E+01  1.20100000E+01  1.20100000E+01  1.20100000E+01  1.60000000E+01
  1.60000000E+01  1.00800000E+00  1.00800000E+00  1.00800000E+00  1.00800000E+00
  1.00800000E+00  1.00800000E+00  1.00800000E+00  1.00800000E+00  1.00800000E+00
  1.00800000E+00  1.00800000E+00  1.00800000E+00  1.00800000E+00
%FLAG ATOM_TYPE_INDEX                                                           
%FORMAT(10I8)                                                                   
       1       1       1       2       3       4       5       4       6       1
       1       1       1       5       4       4       7       7       7       7
       8       8       8       8       7       7       7       7       8
%FLAG NUMBER_EXCLUDED_ATOMS                                                     
%FORMAT(10I8)                                                                   
      12      14      12       6       3       1      16       4      15      11
      10      11      10       5       2       1       3       2       1       2
       1       1       3       2       3       2       2       1       1
%FLAG NONBONDED_PARM_INDEX                                                      
%FORMAT(10I8)                                                                   
       1       2       4       7      11      16      22      29       2       3
       5       8      12      17      23      30       4       5       6       9
      13      18      24      31       7       8       9      10      14      19
      25      32      11      12      13      14      15      20      26      33
      16      17      18      19      20      21      27      34      22      23
      24      25      26      27      28      35      29      30      31      32
      33      34      35      36
%FLAG RESIDUE_LABEL                                                             
%FORMAT(20a4)                                                                   
MOL 
%FLAG RESIDUE_POINTER                                                           
%FORMAT(10I8)                                                                   
       1
%FLAG BOND_FORCE_CONSTANT                                                       
%FORMAT(5E16.8)                                                                 
  2.32500000E+02  3.75900000E+02  2.43200000E+02  1.83000000E+02  3.75900000E+02
  3.42900000E+02  3.81800000E+02  6.52600000E+02  3.56200000E+02  2.63800000E+02
%FLAG BOND_EQUIL_VALUE                                                          
%FORMAT(5E16.8)                                                                 
  1.53800000E+00  1.09700000E+00  1.52400000E+00  1.83900000E+00  1.09700000E+00
  1.65600000E+00  1.21700000E+00  1.21800000E+00  1.37900000E+00  1.46200000E+00
%FLAG ANGLE_FORCE_CONSTANT                                                      
%FORMAT(5E16.8)                                                                 
  6.49000000E+01  6.53000000E+01  4.68000000E+01  6.32000000E+01  4.69000000E+01
  8.46000000E+01  8.43000000E+01  9.46000000E+01  4.25000000E+01  8.53000000E+01
  4.74000000E+01  6.53000000E+01  1.13800000E+02  8.32000000E+01  6.15000000E+01
  8.45000000E+01  6.49000000E+01  4.75000000E+01  1.18800000E+02  3.90000000E+01
  3.88000000E+01
%FLAG ANGLE_EQUIL_VALUE                                                         
%FORMAT(5E16.8)                                                                 
  1.94621748E+00  1.93801443E+00  1.91637234E+00  1.92457539E+00  1.91218355E+00
  2.15024656E+00  2.01027109E+00  1.67691306E+00  1.89822091E+00  2.02056854E+00
  1.89839544E+00  2.10643878E+00  2.14762857E+00  1.94796281E+00  1.90031530E+00
  1.90345690E+00  2.01829961E+00  1.88879613E+00  2.27329233E+00  1.87762601E+00
  1.89298492E+00
%FLAG DIHEDRAL_FORCE_CONSTANT                                                   
%FORMAT(5E16.8)                                                                 
  1.55555556E-01  7.40000000E-01  2.70000000E-01  5.50000000E-01  7.10000000E-01
  0.00000000E+00  3.33333333E-01  5.00000000E-01  2.60000000E-01  8.00000000E-02
  1.30000000E+00  2.80000000E+00  1.02000000E+00  1.70000000E-01  1.00000000E-01
  0.00000000E+00  6.40000000E-01  3.90000000E-01  8.30000000E-01  4.00000000E-02
  2.50000000E+00  1.00000000E-01  0.00000000E+00  1.10000000E-01  2.90000000E-01
  1.30000000E-01  8.00000000E-01  8.00000000E-02  1.20000000E-01  1.05000000E+01
  1.10000000E+00
%FLAG DIHEDRAL_PERIODICITY                                                      
%FORMAT(5E16.8)                                                                 
  3.00000000E+00  1.00000000E+00  2.00000000E+00  3.00000000E+00  2.00000000E+00
  4.00000000E+00  3.00000000E+00  1.00000000E+00  2.00000000E+00  3.00000000E+00
  1.00000000E+00  2.00000000E+00  1.00000000E+00  3.00000000E+00  4.00000000E+00
  2.00000000E+00  1.00000000E+00  2.00000000E+00  1.00000000E+00  3.00000000E+00
  2.00000000E+00  3.00000000E+00  2.00000000E+00  1.00000000E+00  2.00000000E+00
  3.00000000E+00  1.00000000E+00  3.00000000E+00  3.00000000E+00  2.00000000E+00
  2.00000000E+00
%FLAG DIHEDRAL_PHASE                                                            
%FORMAT(5E16.8)                                                                 
  0.00000000E+00  0.00000000E+00  3.14159400E+00  3.14159400E+00  3.14159400E+00
  3.14159400E+00  0.00000000E+00  0.00000000E+00  3.14159400E+00  0.00000000E+00
  3.14159400E+00  3.14159400E+00  3.14159400E+00  0.00000000E+00  3.14159400E+00
  3.14159400E+00  0.00000000E+00  3.14159400E+00  0.00000000E+00  3.14159400E+00
  3.14159400E+00  0.00000000E+00  0.00000000E+00  0.00000000E+00  3.14159400E+00
  0.00000000E+00  0.00000000E+00  3.14159400E+00  0.00000000E+00  3.14159400E+00
  3.14159400E+00
%FLAG SCEE_SCALE_FACTOR                                                         
%FORMAT(5E16.8)                                                                 
  1.20000000E+00  1.20000000E+00  1.20000000E+00  1.20000000E+00  1.20000000E+00
  1.20000000E+00  1.20000000E+00  1.20000000E+00  1.20000000E+00  1.20000000E+00
  1.20000000E+00  1.20000000E+00  1.20000000E+00  1.20000000E+00  1.20000000E+00
  1.20000000E+00  1.20000000E+00  1.20000000E+00  1.20000000E+00  1.20000000E+00
  1.20000000E+00  1.20000000E+00  1.20000000E+00  1.20000000E+00  1.20000000E+00
  1.20000000E+00  1.20000000E+00  1.20000000E+00  1.20000000E+00  0.00000000E+00
  0.00000000E+00
%FLAG SCNB_SCALE_FACTOR                                                         
%FORMAT(5E16.8)                                                                 
  2.00000000E+00  2.00000000E+00  2.00000000E+00  2.00000000E+00  2.00000000E+00
  2.00000000E+00  2.00000000E+00  2.00000000E+00  2.00000000E+00  2.00000000E+00
  2.00000000E+00  2.00000000E+00  2.00000000E+00  2.00000000E+00  2.00000000E+00
  2.00000000E+00  2.00000000E+00  2.00000000E+00  2.00000000E+00  2.00000000E+00
  2.00000000E+00  2.00000000E+00  2.00000000E+00  2.00000000E+00  2.00000000E+00
  2.00000000E+00  2.00000000E+00  2.00000000E+00  2.00000000E+00  0.00000000E+00
  0.00000000E+00
%FLAG SOLTY                                                                     
%FORMAT(5E16.8)                                                                 
  0.00000000E+00  0.00000000E+00  0.00000000E+00  0.00000000E+00  0.00000000E+00
  0.00000000E+00  0.00000000E+00  0.00000000E+00
%FLAG LENNARD_JONES_ACOEF                                                       
%FORMAT(5E16.8)                                                                 
  1.02073671E+06  2.09089895E+06  4.26366419E+06  9.31115275E+05  1.90820499E+06
  8.49322032E+05  6.30925504E+05  1.30884564E+06  5.74782316E+05  3.76435470E+05
  8.43969952E+05  1.73376823E+06  7.69642101E+05  5.17507491E+05  6.96551276E+05
  8.52084164E+05  1.75889445E+06  7.76656876E+05  5.15491878E+05  7.01106848E+05
  7.02078680E+05  1.00235148E+05  2.11783234E+05  9.11435380E+04  5.68021765E+04
  8.12662403E+04  7.93773615E+04  7.94617769E+03  6.97998263E+04  1.48672098E+05
  6.34160397E+04  3.86646725E+04  5.63013422E+04  5.45183252E+04  5.22955465E+03
  3.39005767E+03
%FLAG LENNARD_JONES_BCOEF                                                       
%FORMAT(5E16.8)                                                                 
  6.63431737E+02  1.20800124E+03  2.19459223E+03  6.12468585E+02  1.11546536E+03
  5.65406768E+02  5.62969425E+02  1.03157656E+03  5.19385932E+02  4.69350655E+02
  5.90251928E+02  1.07629402E+03  5.44830041E+02  4.98871431E+02  5.24668528E+02
  6.72777963E+02  1.22973599E+03  6.20851625E+02  5.64804067E+02  5.97113873E+02
  6.77820248E+02  1.37787728E+02  2.54804909E+02  1.27000718E+02  1.11953944E+02
  1.21392023E+02  1.36094315E+02  2.57122925E+01  1.14981426E+02  2.13489607E+02
  1.05935811E+02  9.23664132E+01  1.01040256E+02  1.12788003E+02  2.08590256E+01
  1.67944276E+01
%FLAG BONDS_INC_HYDROGEN                                                        
%FORMAT(10I8)                                                                   
       0      48       2       0      51       2       0      54       2       3
      57       2       6      60       5       6      63       5      27      66
       5      27      69       5      30      72       2      30      75       2
      33      78       2      33      81       2      36      84       5
%FLAG BONDS_WITHOUT_HYDROGEN                                                    
%FORMAT(10I8)                                                                   
       0       3       1       3       6       1       3      18       3       6
       9       4       9      12       6      12      15       7      18      21
       8      18      24       9      24      27      10      24      36      10
      27      30       1      30      33       1      33      36       1      36
      39       3      39      42       8      39      45       8
%FLAG ANGLES_INC_HYDROGEN                                                       
%FORMAT(10I8)                                                                   
       0       3      57       3       3       0      48       3       3       0
      51       3       3       0      54       3       3       6      60       5
       3       6      63       5       6       3      57       3       9       6
      60       9       9       6      63       9      18       3      57      11
      24      27      66      15      24      27      69      15      24      36
      84      15      27      30      72       3      27      30      75       3
      30      27      66       5      30      27      69       5      30      33
      78       3      30      33      81       3      33      30      72       3
      33      30      75       3      33      36      84       5      36      33
      78       3      36      33      81       3      39      36      84      18
      48       0      51      20      48       0      54      20      51       0
      54      20      60       6      63      21      66      27      69      21
      72      30      75      20      78      33      81      20
%FLAG ANGLES_WITHOUT_HYDROGEN                                                   
%FORMAT(10I8)                                                                   
       0       3       6       1       0       3      18       2       3       6
       9       4       3      18      21       6       3      18      24       7
       6       3      18       2       6       9      12       8       9      12
      15      10      18      24      27      12      18      24      36      12
      21      18      24      13      24      27      30      14      24      36
      33      14      24      36      39      16      27      24      36      17
      27      30      33       1      30      33      36       1      33      36
      39       2      36      39      42       6      36      39      45       6
      42      39      45      19
%FLAG DIHEDRALS_INC_HYDROGEN                                                    
%FORMAT(10I8)                                                                   
       0       3       6      60       1       0       3       6      63       1
      48       0       3       6      10      51       0       3       6      10
      54       0       3       6      10       9       6       3      57       1
      12       9       6      60       7      12       9       6      63       7
      48       0       3      18       1      51       0       3      18       1
      54       0       3      18       1      18       3       6      60       1
      18       3       6      63       1      18      24      27      66      16
      18      24      27      69      16      18      24      36      84      16
      21      18       3      57      19      21      18      -3      57      20
      24      18       3      57      16      24      27      30      72       1
      24      27      30      75       1      24      36      33      78       1
      24      36      33      81       1      27      24      36      84      23
      27      30      33      78      10      27      30      33      81      10
      30      33      36      84       1      33      30      27      66       1
      33      30      27      69       1      36      33      30      72      10
      36      33      30      75      10      36      24      27      66      23
      36      24      27      69      23      39      36      33      78       1
      39      36      33      81       1      42      39      36      84      27
      42      39     -36      84      28      45      39      36      84      27
      45      39     -36      84      28      48       0       3      57      29
      51       0       3      57      29      54       0       3      57      29
      57       3       6      60       1      57       3       6      63       1
      66      27      30      72       1      66      27      30      75       1
      69      27      30      72       1      69      27      30      75       1
      72      30      33      78      29      72      30      33      81      29
      75      30      33      78      29      75      30      33      81      29
      78      33      36      84       1      81      33      36      84       1
%FLAG DIHEDRALS_WITHOUT_HYDROGEN                                                
%FORMAT(10I8)                                                                   
       0       3       6       9       1       0       3      18      21       2
       0       3     -18      21       3       0       3     -18      21       4
       0       3      18      24       5       0       3     -18      24       6
       3       6       9      12       7       3      18      24      27       8
       3      18     -24      27       9       3      18      24      36       8
       3      18     -24      36       9       6       3      18      21       2
       6       3     -18      21       3       6       3     -18      21       4
       6       3      18      24       5       6       3     -18      24       6
       6       9      12      15      11       6       9     -12      15      12
       9       6       3      18       1      18      24      27      30      13
      18      24     -27      30      14      18      24     -27      30      15
      18      24      36      33      13      18      24     -36      33      14
      18      24     -36      33      15      18      24      36      39      17
      18      24     -36      39      18      21      18      24      27      21
      21      18      24      36      21      24      27     -30      33      22
      24      36     -33      30      22      24      36      39      42      16
      24      36      39      45      16      27      24     -36      33      23
      27      24      36      39      23      27      30     -33      36      24
      27      30     -33      36      25      27      30     -33      36      26
      30      27     -24      36      23      30      33      36      39      22
      33      36      39      42       2      33      36     -39      42       3
      33      36     -39      42       4      33      36      39      45       2
      33      36     -39      45       3      33      36     -39      45       4
       3      24     -18     -21      30      18      27     -24     -36      31
      36      42     -39     -45      31
%FLAG EXCLUDED_ATOMS_LIST                                                       
%FORMAT(10I8)                                                                   
       2       3       4       7       8       9      17      18      19      20
      21      22       3       4       5       7       8       9      10      13
      17      18      19      20      21      22       4       5       6       7
       8       9      17      18      19      20      21      22       5       6
       7      20      21      22       6      21      22       0       8       9
      10      11      12      13      14      17      18      19      20      21
      22      23      24      29       9      10      13      20      10      11
      12      13      14      15      16      20      23      24      25      26
      27      28      29      11      12      13      14      23      24      25
      26      27      28      29      12      13      14      23      24      25
      26      27      28      29      13      14      15      16      23      24
      25      26      27      28      29      14      15      16      23      24
      25      26      27      28      29      15      16      27      28      29
      16      29      29      18      19      20      19      20      20      21
      22      22       0      24      25      26      25      26      26      27
      28      27      28      28      29      29       0
%FLAG HBOND_ACOEF                                                               
%FORMAT(5E16.8)                                                                 

%FLAG HBOND_BCOEF                                                               
%FORMAT(5E16.8)                                                                 

%FLAG HBCUT                                                                     
%FORMAT(5E16.8)                                                                 

%FLAG AMBER_ATOM_TYPE                                                           
%FORMAT(20a4)                                                                   
c3  c3  c3  ss  n2  o   c   o   n   c3  c3  c3  c3  c   o   o   hc  hc  hc  hc  
h1  h1  h1  h1  hc  hc  hc  hc  h1  
%FLAG TREE_CHAIN_CLASSIFICATION                                                 
%FORMAT(20a4)                                                                   
BLA BLA BLA BLA BLA BLA BLA BLA BLA BLA BLA BLA BLA BLA BLA BLA BLA BLA BLA BLA 
BLA BLA BLA BLA BLA BLA BLA BLA BLA 
%FLAG JOIN_ARRAY                                                                
%FORMAT(10I8)                                                                   
       0       0       0       0       0       0       0       0       0       0
       0       0       0       0       0       0       0       0       0       0
       0       0       0       0       0       0       0       0       0
%FLAG IROTAT                                                                    
%FORMAT(10I8)                                                                   
       0       0       0       0       0       0       0       0       0       0
       0       0       0       0       0       0       0       0       0       0
       0       0       0       0       0       0       0       0       0
%FLAG RADIUS_SET                                                                
%FORMAT(1a80)                                                                   
modified Bondi radii (mbondi)                                                   
%FLAG RADII                                                                     
%FORMAT(5E16.8)                                                                 
  1.70000000E+00  1.70000000E+00  1.70000000E+00  1.80000000E+00  1.55000000E+00
  1.50000000E+00  1.70000000E+00  1.50000000E+00  1.55000000E+00  1.70000000E+00
  1.70000000E+00  1.70000000E+00  1.70000000E+00  1.70000000E+00  1.50000000E+00
  1.50000000E+00  1.30000000E+00  1.30000000E+00  1.30000000E+00  1.30000000E+00
  1.30000000E+00  1.30000000E+00  1.30000000E+00  1.30000000E+00  1.30000000E+00
  1.30000000E+00  1.30000000E+00  1.30000000E+00  1.30000000E+00
%FLAG SCREEN                                                                    
%FORMAT(5E16.8)                                                                 
  7.20000000E-01  7.20000000E-01  7.20000000E-01  9.60000000E-01  7.90000000E-01
  8.50000000E-01  7.20000000E-01  8.50000000E-01  7.90000000E-01  7.20000000E-01
  7.20000000E-01  7.20000000E-01  7.20000000E-01  7.20000000E-01  8.50000000E-01
  8.50000000E-01  8.50000000E-01  8.50000000E-01  8.50000000E-01  8.50000000E-01
  8.50000000E-01  8.50000000E-01  8.50000000E-01  8.50000000E-01  8.50000000E-01
  8.50000000E-01  8.50000000E-01  8.50000000E-01  8.50000000E-01
%FLAG IPOL                                                                      
%FORMAT(1I8)                                                                    
       0
