MOL
    29
   0.8160000   2.4270000  -0.2040000  -0.2410000   1.3200000  -0.1840000
  -1.6300000   1.9370000   0.0180000  -2.9500000   0.6890000  -0.2020000
  -4.1740000   1.8650000   0.0660000  -5.2990000   1.3690000  -0.0540000
   0.1010000   0.3670000   0.9560000  -0.2240000   0.6440000   2.1160000
   0.7950000  -0.7820000   0.6630000   1.2180000  -1.6810000   1.7180000
   2.1250000  -2.6970000   1.0470000   1.5920000  -2.7540000  -0.3800000
   1.1670000  -1.3120000  -0.6740000   2.2950000  -0.5420000  -1.4290000
   1.8950000   0.1140000  -2.4370000   3.4640000  -0.6470000  -0.9610000
   0.6630000   3.0950000  -1.0580000   1.8280000   2.0170000  -0.2710000
   0.7740000   3.0320000   0.7100000  -0.2280000   0.8090000  -1.1490000
  -1.7820000   2.7320000  -0.7240000  -1.7190000   2.3880000   1.0140000
   0.3210000  -2.1600000   2.1280000   1.7170000  -1.1320000   2.5220000
   2.1040000  -3.6700000   1.5460000   3.1610000  -2.3400000   1.0530000
   0.7130000  -3.4100000  -0.4100000   2.3300000  -3.1520000  -1.0830000
   0.2680000  -1.3200000  -1.3020000
