%VERSION  VERSION_STAMP = V0001.000  DATE = 07/11/26  13:52:34                  
%FLAG TITLE                                                                     
%FORMAT(20a4)                                                                   
MOL                                                                             
%FLAG POINTERS                                                                  
%FORMAT(10I8)                                                                   
      59       6      30      30      62      40      78      61       0       0
     286       1      30      40      61      11      20      14       7       0
       0       0       0       0       0       0       0       0      59       0
       0
%FLAG ATOM_NAME                                                                 
%FORMAT(20a4)                                                                   
C1  C2  C3  C4  C5  C6  O1  C7  C8  O2  C9  C10 C11 C12 C13 C14 O3  C15 C16 O4  
C17 C18 O5  C19 C20 C21 O6  C22 C23 H1  H2  H3  H4  H5  H6  H7  H8  H9  H10 H11 
H12 H13 H14 H15 H16 H17 H18 H19 H20 H21 H22 H23 H24 H25 H26 H27 H28 H29 H30 
%FLAG CHARGE                                                                    
%FORMAT(5E16.8)                                                                 
 -4.00890600E+00 -2.95565706E+00 -1.98623070E-01 -2.60578890E-01 -4.06357290E+00
  2.47094388E+00 -5.75642457E+00  1.98987516E+00  7.85381130E-01 -5.84753607E+00
  2.58938883E+00 -2.20672053E+00 -7.12491930E-01 -3.88134990E-01 -4.04535060E+00
  2.44361043E+00 -5.74731342E+00  2.00809746E+00  6.21380430E-01 -5.68353537E+00
  2.10832011E+00  2.44361043E+00 -5.74731342E+00  2.00809746E+00 -4.04535060E+00
  2.47094388E+00 -5.75642457E+00  1.98987516E+00 -4.06357290E+00  2.05911990E+00
  2.05911990E+00  2.25956520E+00  1.05142671E+00  1.05142671E+00  2.57845545E+00
  8.60092560E-01  8.60092560E-01  8.60092560E-01  1.17898281E+00  8.32759110E-01
  8.32759110E-01  8.32759110E-01  1.21542741E+00  1.21542741E+00  2.79712305E+00
  8.23647960E-01  8.23647960E-01  8.23647960E-01  7.23425310E-01  7.23425310E-01
  7.23425310E-01  8.23647960E-01  8.23647960E-01  8.23647960E-01  2.79712305E+00
  8.60092560E-01  8.60092560E-01  8.60092560E-01  2.57845545E+00
%FLAG ATOMIC_NUMBER                                                             
%FORMAT(10I8)                                                                   
       6       6       6       6       6       6       8       6       6       8
       6       6       6       6       6       6       8       6       6       8
       6       6       8       6       6       6       8       6       6       1
       1       1       1       1       1       1       1       1       1       1
       1       1       1       1       1       1       1       1       1       1
       1       1       1       1       1       1       1       1       1
%FLAG MASS                                                                      
%FORMAT(5E16.8)                                                                 
  1.20100000E+01  1.20100000E+01  1.20100000E+01  1.20100000E+01  1.20100000E+01
  1.20100000E+01  1.60000000E+01  1.20100000E+01  1.20100000E+01  1.60000000E+01
  1.20100000E+01  1.20100000E+01  1.20100000E+01  1.20100000E+01  1.20100000E+01
  1.20100000E+01  1.60000000E+01  1.20100000E+01  1.20100000E+01  1.60000000E+01
  1.20100000E+01  1.20100000E+01  1.60000000E+01  1.20100000E+01  1.20100000E+01
  1.20100000E+01  1.60000000E+01  1.20100000E+01  1.20100000E+01  1.00800000E+00
  1.00800000E+00  1.00800000E+00  1.00800000E+00  1.00800000E+00  1.00800000E+00
  1.00800000E+00  1.00800000E+00  1.00800000E+00  1.00800000E+00  1.00800000E+00
  1.00800000E+00  1.00800000E+00  1.00800000E+00  1.00800000E+00  1.00800000E+00
  1.00800000E+00  1.00800000E+00  1.00800000E+00  1.00800000E+00  1.00800000E+00
  1.00800000E+00  1.00800000E+00  1.00800000E+00  1.00800000E+00  1.00800000E+00
  1.00800000E+00  1.00800000E+00  1.00800000E+00  1.00800000E+00
%FLAG ATOM_TYPE_INDEX                                                           
%FORMAT(10I8)                                                                   
       1       1       2       1       1       1       3       2       1       3
       2       2       2       1       1       1       3       2       1       3
       2       1       3       2       1       1       3       2       1       4
       4       4       5       5       4       6       6       6       6       5
       5       5       5       5       4       6       6       6       6       6
       6       6       6       6       4       6       6       6       4
%FLAG NUMBER_EXCLUDED_ATOMS                                                     
%FORMAT(10I8)                                                                   
       8       9      12      12      11      12       8       4      11      13
      12       8      13      12      11      12       8       4      11       7
       4       7       6       4       4       7       6       4       4       2
       1       2       1       1       1       2       1       1       5       2
       1       1       1       1       1       2       1       1       2       1
       1       2       1       1       1       2       1       1       1
%FLAG NONBONDED_PARM_INDEX                                                      
%FORMAT(10I8)                                                                   
       1       2       4       7      11      16       2       3       5       8
      12      17       4       5       6       9      13      18       7       8
       9      10      14      19      11      12      13      14      15      20
      16      17      18      19      20      21
%FLAG RESIDUE_LABEL                                                             
%FORMAT(20a4)                                                                   
MOL 
%FLAG RESIDUE_POINTER                                                           
%FORMAT(10I8)                                                                   
       1
%FLAG BOND_FORCE_CONSTANT                                                       
%FORMAT(5E16.8)                                                                 
  4.81800000E+02  3.92200000E+02  2.55600000E+02  2.50300000E+02  3.75900000E+02
  3.78600000E+02  3.95700000E+02  3.57500000E+02  2.84800000E+02  3.75900000E+02
  2.32500000E+02
%FLAG BOND_EQUIL_VALUE                                                          
%FORMAT(5E16.8)                                                                 
  1.33400000E+00  1.08800000E+00  1.51000000E+00  1.51600000E+00  1.09700000E+00
  1.39800000E+00  1.08600000E+00  1.37000000E+00  1.43200000E+00  1.09700000E+00
  1.53800000E+00
%FLAG ANGLE_FORCE_CONSTANT                                                      
%FORMAT(5E16.8)                                                                 
  6.61000000E+01  5.04000000E+01  6.57000000E+01  4.75000000E+01  4.64000000E+01
  6.56000000E+01  4.73000000E+01  6.88000000E+01  4.87000000E+01  8.73000000E+01
  6.61000000E+01  6.24000000E+01  8.53000000E+01  4.68000000E+01  6.52000000E+01
  6.49000000E+01  4.69000000E+01  3.77000000E+01  3.90000000E+01  3.88000000E+01
%FLAG ANGLE_EQUIL_VALUE                                                         
%FORMAT(5E16.8)                                                                 
  2.15775148E+00  2.10190092E+00  1.96332172E+00  1.92614619E+00  2.01899774E+00
  2.10783504E+00  1.92806605E+00  2.09474507E+00  2.09230160E+00  2.08043336E+00
  2.05879127E+00  1.91602327E+00  1.88443280E+00  1.91637234E+00  1.95599133E+00
  1.94621748E+00  1.91218355E+00  2.04029077E+00  1.87762601E+00  1.89298492E+00
%FLAG DIHEDRAL_FORCE_CONSTANT                                                   
%FORMAT(5E16.8)                                                                 
  0.00000000E+00  1.47000000E+00  3.60000000E-01  6.65000000E+00  3.62500000E+00
  0.00000000E+00  1.61000000E+00  3.83333333E-01  2.50000000E-01  0.00000000E+00
  1.55555556E-01  2.45000000E-01  8.00000000E-02  1.10000000E+00
%FLAG DIHEDRAL_PERIODICITY                                                      
%FORMAT(5E16.8)                                                                 
  2.00000000E+00  1.00000000E+00  3.00000000E+00  2.00000000E+00  2.00000000E+00
  2.00000000E+00  2.00000000E+00  3.00000000E+00  1.00000000E+00  3.00000000E+00
  3.00000000E+00  2.00000000E+00  3.00000000E+00  2.00000000E+00
%FLAG DIHEDRAL_PHASE                                                            
%FORMAT(5E16.8)                                                                 
  0.00000000E+00  0.00000000E+00  3.14159400E+00  3.14159400E+00  3.14159400E+00
  3.14159400E+00  3.14159400E+00  0.00000000E+00  0.00000000E+00  0.00000000E+00
  0.00000000E+00  3.14159400E+00  0.00000000E+00  3.14159400E+00
%FLAG SCEE_SCALE_FACTOR                                                         
%FORMAT(5E16.8)                                                                 
  1.20000000E+00  1.20000000E+00  1.20000000E+00  1.20000000E+00  1.20000000E+00
  1.20000000E+00  1.20000000E+00  1.20000000E+00  1.20000000E+00  1.20000000E+00
  1.20000000E+00  1.20000000E+00  1.20000000E+00  0.00000000E+00
%FLAG SCNB_SCALE_FACTOR                                                         
%FORMAT(5E16.8)                                                                 
  2.00000000E+00  2.00000000E+00  2.00000000E+00  2.00000000E+00  2.00000000E+00
  2.00000000E+00  2.00000000E+00  2.00000000E+00  2.00000000E+00  2.00000000E+00
  2.00000000E+00  2.00000000E+00  2.00000000E+00  0.00000000E+00
%FLAG SOLTY                                                                     
%FORMAT(5E16.8)                                                                 
  0.00000000E+00  0.00000000E+00  0.00000000E+00  0.00000000E+00  0.00000000E+00
  0.00000000E+00  0.00000000E+00
%FLAG LENNARD_JONES_ACOEF                                                       
%FORMAT(5E16.8)                                                                 
  6.96551276E+05  8.43969952E+05  1.02073671E+06  4.46121722E+05  5.42502534E+05
  2.83662575E+05  7.52549148E+04  9.27554496E+04  4.65732396E+04  6.90855956E+03
  8.12662403E+04  1.00235148E+05  5.02224902E+04  7.41026906E+03  7.94617769E+03
  5.63013422E+04  6.97998263E+04  3.44374471E+04  4.88692384E+03  5.22955465E+03
  3.39005767E+03
%FLAG LENNARD_JONES_BCOEF                                                       
%FORMAT(5E16.8)                                                                 
  5.24668528E+02  5.90251928E+02  6.63431737E+02  3.88758656E+02  4.38146883E+02
  2.87011518E+02  1.09570372E+02  1.24325688E+02  7.98066064E+01  2.10929191E+01
  1.21392023E+02  1.37787728E+02  8.83545880E+01  2.32899892E+01  2.57122925E+01
  1.01040256E+02  1.14981426E+02  7.31636661E+01  1.89134207E+01  2.08590256E+01
  1.67944276E+01
%FLAG BONDS_INC_HYDROGEN                                                        
%FORMAT(10I8)                                                                   
       0      87       2       0      90       2       3      93       2       6
      96       5       6      99       5      12     102       7      21     105
      10      21     108      10      21     111      10      30     114      10
      33     117       5      33     120       5      33     123       5      36
     126       5      36     129       5      42     132       7      51     135
      10      51     138      10      51     141      10      60     144      10
      60     147      10      60     150      10      69     153      10      69
     156      10      69     159      10      72     162       7      81     165
      10      81     168      10      81     171      10      84     174       7
%FLAG BONDS_WITHOUT_HYDROGEN                                                    
%FORMAT(10I8)                                                                   
       0       3       1       3       6       3       6       9       4       9
      12       6       9      84       6      12      15       6      15      18
       8      15      24       6      18      21       9      24      27       8
      24      75       6      27      30       9      30      33      11      30
      36      11      36      39       4      39      42       6      39      72
       6      42      45       6      45      48       8      45      54       6
      48      51       9      54      57       8      54      63       6      57
      60       9      63      66       8      63      72       6      66      69
       9      75      78       8      75      84       6      78      81       9
%FLAG ANGLES_INC_HYDROGEN                                                       
%FORMAT(10I8)                                                                   
       0       3      93       2       3       0      87       2       3       0
      90       2       3       6      96       4       3       6      99       4
       6       3      93       5       9       6      96       7       9       6
      99       7       9      12     102       9       9      84     174       9
      15      12     102       9      18      21     105      12      18      21
     108      12      18      21     111      12      27      30     114      12
      30      33     117      14      30      33     120      14      30      33
     123      14      30      36     126      14      30      36     129      14
      33      30     114      17      36      30     114      17      39      36
     126       7      39      36     129       7      39      42     132       9
      39      72     162       9      45      42     132       9      48      51
     135      12      48      51     138      12      48      51     141      12
      57      60     144      12      57      60     147      12      57      60
     150      12      63      72     162       9      66      69     153      12
      66      69     156      12      66      69     159      12      75      84
     174       9      78      81     165      12      78      81     168      12
      78      81     171      12      87       0      90      18      96       6
      99      19     105      21     108      20     105      21     111      20
     108      21     111      20     117      33     120      19     117      33
     123      19     120      33     123      19     126      36     129      19
     135      51     138      20     135      51     141      20     138      51
     141      20     144      60     147      20     144      60     150      20
     147      60     150      20     153      69     156      20     153      69
     159      20     156      69     159      20     165      81     168      20
     165      81     171      20     168      81     171      20
%FLAG ANGLES_WITHOUT_HYDROGEN                                                   
%FORMAT(10I8)                                                                   
       0       3       6       1       3       6       9       3       6       9
      12       6       6       9      84       6       9      12      15       8
       9      84      75       8      12       9      84       8      12      15
      18      10      12      15      24       8      15      18      21      11
      15      24      27      10      15      24      75       8      18      15
      24      10      24      27      30      11      24      75      78      10
      24      75      84       8      27      24      75      10      27      30
      33      13      27      30      36      13      30      36      39      15
      33      30      36      16      36      39      42       6      36      39
      72       6      39      42      45       8      39      72      63       8
      42      39      72       8      42      45      48      10      42      45
      54       8      45      48      51      11      45      54      57      10
      45      54      63       8      48      45      54      10      54      57
      60      11      54      63      66      10      54      63      72       8
      57      54      63      10      63      66      69      11      66      63
      72      10      75      78      81      11      78      75      84      10
%FLAG DIHEDRALS_INC_HYDROGEN                                                    
%FORMAT(10I8)                                                                   
       0       3       6      96       2       0       3      -6      96       3
       0       3       6      99       2       0       3      -6      99       3
      87       0       3       6       4      90       0       3       6       4
       6       9      12     102       5       6       9      84     174       5
       9       6       3      93       1      12       9       6      96       6
      12       9       6      99       6      12       9      84     174       5
      15      18      21     105       8      15      18      21     108       8
      15      18      21     111       8      18      15      12     102       5
      24      15      12     102       5      24      27      30     114       8
      24      75      84     174       5      27      30      33     117       9
      27      30     -33     117      10      27      30      33     120       9
      27      30     -33     120      10      27      30      33     123       9
      27      30     -33     123      10      27      30      36     126       9
      27      30     -36     126      10      27      30      36     129       9
      27      30     -36     129      10      33      30      36     126      13
      33      30      36     129      13      36      30      33     117      13
      36      30      33     120      13      36      30      33     123      13
      36      39      42     132       5      36      39      72     162       5
      39      36      30     114      11      42      39      36     126       6
      42      39      36     129       6      42      39      72     162       5
      45      48      51     135       8      45      48      51     138       8
      45      48      51     141       8      48      45      42     132       5
      54      45      42     132       5      54      57      60     144       8
      54      57      60     147       8      54      57      60     150       8
      54      63      72     162       5      63      66      69     153       8
      63      66      69     156       8      63      66      69     159       8
      66      63      72     162       5      72      39      36     126       6
      72      39      36     129       6      72      39      42     132       5
      75      78      81     165       8      75      78      81     168       8
      75      78      81     171       8      78      75      84     174       5
      84       9       6      96       6      84       9       6      99       6
      84       9      12     102       5      87       0       3      93       4
      90       0       3      93       4      93       3       6      96       1
      93       3       6      99       1     114      30      33     117      11
     114      30      33     120      11     114      30      33     123      11
     114      30      36     126      11     114      30      36     129      11
      90       0     -87      -3      14       0       6      -3     -93      14
       9      15     -12    -102      14      39      45     -42    -132      14
      39      63     -72    -162      14       9      75     -84    -174      14
%FLAG DIHEDRALS_WITHOUT_HYDROGEN                                                
%FORMAT(10I8)                                                                   
       0       3       6       9       1       3       6       9      12       1
       3       6       9      84       1       6       9      12      15       5
       6       9      84      75       5       9      12      15      18       5
       9      12      15      24       5       9      84     -75      24       5
       9      84      75      78       5      12       9      84      75       5
      12      15      18      21       7      12      15      24      27       5
      12      15     -24      75       5      15      12       9      84       5
      15      24      27      30       7      15      24      75      78       5
      15      24     -75      84       5      18      15      24      27       5
      18      15      24      75       5      21      18      15      24       7
      24      27      30      33       8      24      27      30      36       8
      24      75      78      81       7      27      24      75      78       5
      27      24      75      84       5      27      30      36      39      11
      30      27      24      75       7      30      36      39      42      12
      30      36      39      72      12      33      30      36      39      11
      36      39      42      45       5      36      39      72      63       5
      39      42      45      48       5      39      42      45      54       5
      39      72     -63      54       5      39      72      63      66       5
      42      39      72      63       5      42      45      48      51       7
      42      45      54      57       5      42      45     -54      63       5
      45      42      39      72       5      45      54      57      60       7
      45      54      63      66       5      45      54     -63      72       5
      48      45      54      57       5      48      45      54      63       5
      51      48      45      54       7      54      63      66      69       7
      57      54      63      66       5      57      54      63      72       5
      60      57      54      63       7      69      66      63      72       7
      81      78      75      84       7      12      84      -9      -6      14
      12      24     -15     -18      14      15      75     -24     -27      14
      36      42     -39     -72      14      42      54     -45     -48      14
      45      63     -54     -57      14      54      72     -63     -66      14
      24      84     -75     -78      14
%FLAG EXCLUDED_ATOMS_LIST                                                       
%FORMAT(10I8)                                                                   
       2       3       4      30      31      32      33      34       3       4
       5      29      30      31      32      33      34       4       5       6
      26      29      30      31      32      33      34      35      59       5
       6       7       9      26      27      29      32      33      34      35
      59       6       7       8       9      10      26      29      33      34
      35      59       7       8       9      10      11      26      27      29
      35      36      37      38       8       9      10      26      35      36
      37      38       9      36      37      38      10      11      12      13
      26      27      28      29      35      39      59      11      12      13
      14      26      27      29      39      40      41      42      43      44
      12      13      14      15      25      26      39      40      41      42
      43      44      13      14      39      40      41      42      43      44
      14      15      16      22      25      39      40      41      42      43
      44      45      55      15      16      17      19      22      23      25
      39      43      44      45      55      16      17      18      19      20
      22      25      43      44      45      55      17      18      19      20
      21      22      23      25      45      46      47      48      18      19
      20      22      45      46      47      48      19      46      47      48
      20      21      22      23      24      25      45      49      50      51
      55      21      22      23      25      49      50      51      22      49
      50      51      23      24      25      52      53      54      55      24
      25      52      53      54      55      25      52      53      54      43
      44      45      55      27      28      29      56      57      58      59
      28      29      56      57      58      59      29      56      57      58
      33      34      35      59      31      32      32      33      34      34
       0       0      37      38      38       0      40      41      42      43
      44      41      42      42       0      44       0       0      47      48
      48       0      50      51      51       0      53      54      54       0
       0      57      58      58       0       0
%FLAG HBOND_ACOEF                                                               
%FORMAT(5E16.8)                                                                 

%FLAG HBOND_BCOEF                                                               
%FORMAT(5E16.8)                                                                 

%FLAG HBCUT                                                                     
%FORMAT(5E16.8)                                                                 

%FLAG AMBER_ATOM_TYPE                                                           
%FORMAT(20a4)                                                                   
c2  c2  c3  ca  ca  ca  os  c3  ca  os  c3  c3  c3  ca  ca  ca  os  c3  ca  os  
c3  ca  os  c3  ca  ca  os  c3  ca  ha  ha  ha  hc  hc  ha  h1  h1  h1  h1  hc  
hc  hc  hc  hc  ha  h1  h1  h1  h1  h1  h1  h1  h1  h1  ha  h1  h1  h1  ha  
%FLAG TREE_CHAIN_CLASSIFICATION                                                 
%FORMAT(20a4)                                                                   
BLA BLA BLA BLA BLA BLA BLA BLA BLA BLA BLA BLA BLA BLA BLA BLA BLA BLA BLA BLA 
BLA BLA BLA BLA BLA BLA BLA BLA BLA BLA BLA BLA BLA BLA BLA BLA BLA BLA BLA BLA 
BLA BLA BLA BLA BLA BLA BLA BLA BLA BLA BLA BLA BLA BLA BLA BLA BLA BLA BLA 
%FLAG JOIN_ARRAY                                                                
%FORMAT(10I8)                                                                   
       0       0       0       0       0       0       0       0       0       0
       0       0       0       0       0       0       0       0       0       0
       0       0       0       0       0       0       0       0       0       0
       0       0       0       0       0       0       0       0       0       0
       0       0       0       0       0       0       0       0       0       0
       0       0       0       0       0       0       0       0       0
%FLAG IROTAT                                                                    
%FORMAT(10I8)                                                                   
       0       0       0       0       0       0       0       0       0       0
       0       0       0       0       0       0       0       0       0       0
       0       0       0       0       0       0       0       0       0       0
       0       0       0       0       0       0       0       0       0       0
       0       0       0       0       0       0       0       0       0       0
       0       0       0       0       0       0       0       0       0
%FLAG RADIUS_SET                                                                
%FORMAT(1a80)                                                                   
modified Bondi radii (mbondi)                                                   
%FLAG RADII                                                                     
%FORMAT(5E16.8)                                                                 
  1.70000000E+00  1.70000000E+00  1.70000000E+00  1.70000000E+00  1.70000000E+00
  1.70000000E+00  1.50000000E+00  1.70000000E+00  1.70000000E+00  1.50000000E+00
  1.70000000E+00  1.70000000E+00  1.70000000E+00  1.70000000E+00  1.70000000E+00
  1.70000000E+00  1.50000000E+00  1.70000000E+00  1.70000000E+00  1.50000000E+00
  1.70000000E+00  1.70000000E+00  1.50000000E+00  1.70000000E+00  1.70000000E+00
  1.70000000E+00  1.50000000E+00  1.70000000E+00  1.70000000E+00  1.30000000E+00
  1.30000000E+00  1.30000000E+00  1.30000000E+00  1.30000000E+00  1.30000000E+00
  1.30000000E+00  1.30000000E+00  1.30000000E+00  1.30000000E+00  1.30000000E+00
  1.30000000E+00  1.30000000E+00  1.30000000E+00  1.30000000E+00  1.30000000E+00
  1.30000000E+00  1.30000000E+00  1.30000000E+00  1.30000000E+00  1.30000000E+00
  1.30000000E+00  1.30000000E+00  1.30000000E+00  1.30000000E+00  1.30000000E+00
  1.30000000E+00  1.30000000E+00  1.30000000E+00  1.30000000E+00
%FLAG SCREEN                                                                    
%FORMAT(5E16.8)                                                                 
  7.20000000E-01  7.20000000E-01  7.20000000E-01  7.20000000E-01  7.20000000E-01
  7.20000000E-01  8.50000000E-01  7.20000000E-01  7.20000000E-01  8.50000000E-01
  7.20000000E-01  7.20000000E-01  7.20000000E-01  7.20000000E-01  7.20000000E-01
  7.20000000E-01  8.50000000E-01  7.20000000E-01  7.20000000E-01  8.50000000E-01
  7.20000000E-01  7.20000000E-01  8.50000000E-01  7.20000000E-01  7.20000000E-01
  7.20000000E-01  8.50000000E-01  7.20000000E-01  7.20000000E-01  8.50000000E-01
  8.50000000E-01  8.50000000E-01  8.50000000E-01  8.50000000E-01  8.50000000E-01
  8.50000000E-01  8.50000000E-01  8.50000000E-01  8.50000000E-01  8.50000000E-01
  8.50000000E-01  8.50000000E-01  8.50000000E-01  8.50000000E-01  8.50000000E-01
  8.50000000E-01  8.50000000E-01  8.50000000E-01  8.50000000E-01  8.50000000E-01
  8.50000000E-01  8.50000000E-01  8.50000000E-01  8.50000000E-01  8.50000000E-01
  8.50000000E-01  8.50000000E-01  8.50000000E-01  8.50000000E-01
%FLAG IPOL                                                                      
%FORMAT(1I8)                                                                    
       0
