MOL
    59
   3.7460000  -2.0310000   5.6890000   2.6760000  -1.5290000   5.0580000
   1.6760000  -2.3530000   4.2980000   1.5830000  -1.9420000   2.8460000
   2.5460000  -2.3850000   1.9250000   2.4820000  -1.9990000   0.5840000
   3.3710000  -2.3900000  -0.3860000   4.3940000  -3.3000000  -0.0090000
   1.4520000  -1.1360000   0.1700000   1.3870000  -0.8090000  -1.1680000
   1.7050000   0.5710000  -1.4320000   3.2210000   0.7110000  -1.5940000
   1.0140000   0.9720000  -2.7510000  -0.4770000   1.1900000  -2.5980000
  -1.3500000   0.0900000  -2.5930000  -2.7220000   0.2680000  -2.4060000
  -3.6350000  -0.7540000  -2.3610000  -3.1190000  -2.0460000  -2.0640000
  -3.2240000   1.5720000  -2.2700000  -4.5730000   1.7580000  -2.0530000
  -5.2410000   1.8980000  -3.3050000  -2.3670000   2.6860000  -2.2570000
  -2.9650000   3.9080000  -2.0830000  -2.1140000   5.0360000  -1.9360000
  -0.9950000   2.4840000  -2.4240000   0.4620000  -0.7060000   1.0720000
  -0.5310000   0.0880000   0.5640000  -1.6600000   0.3500000   1.3850000
   0.5470000  -1.1010000   2.4100000   3.9650000  -3.0940000   5.6890000
   4.4310000  -1.3780000   6.2230000   2.5010000  -0.4560000   5.0910000
   0.6960000  -2.2470000   4.7780000   1.9190000  -3.4230000   4.3500000
   3.3390000  -3.0310000   2.2870000   3.9720000  -4.2420000   0.3560000
   5.0670000  -2.8530000   0.7300000   4.9860000  -3.5250000  -0.9020000
   1.3730000   1.2370000  -0.6260000   3.6000000   0.0190000  -2.3540000
   3.4970000   1.7320000  -1.8780000   3.7380000   0.4720000  -0.6590000
   1.1750000   0.2020000  -3.5170000   1.4590000   1.8950000  -3.1450000
  -0.9240000  -0.9010000  -2.7150000  -2.5770000  -2.4550000  -2.9220000
  -3.9690000  -2.7070000  -1.8640000  -2.4900000  -2.0340000  -1.1670000
  -6.3040000   2.0590000  -3.1010000  -4.8710000   2.7670000  -3.8610000
  -5.1490000   0.9920000  -3.9130000  -2.7460000   5.9090000  -1.7460000
  -1.4430000   4.9190000  -1.0790000  -1.5520000   5.2270000  -2.8570000
  -0.3020000   3.3190000  -2.4210000  -2.3880000   0.9090000   0.7900000
  -1.3850000   0.9740000   2.2410000  -2.1390000  -0.5790000   1.7110000
  -0.1840000  -0.7640000   3.1380000
