MOL
    66
  -1.1780000   1.7410000  -2.7320000  -0.4450000   2.9740000  -2.7370000
   0.5420000   2.9760000  -1.5670000   1.4800000   1.9150000  -1.8060000
   2.3220000   1.6370000  -0.6780000   1.8190000   0.4980000   0.0290000
   1.9210000  -0.7060000  -0.7520000   0.6160000  -1.4950000  -0.6000000
  -0.4590000  -0.6460000  -1.0640000  -1.7470000  -1.2410000  -0.8980000
  -1.9780000  -1.5110000   0.4810000  -2.7730000  -0.5600000   1.1940000
  -2.3690000   0.9160000   0.9590000  -0.9660000   1.1310000   1.1750000
  -2.5660000  -0.8520000   2.6020000  -3.6440000  -1.7020000   3.0600000
  -3.0420000  -2.9360000   3.7270000  -2.2220000  -2.5390000   4.8260000
  -4.4960000  -2.0460000   1.8480000  -5.8680000  -2.2270000   2.1710000
  -4.2780000  -0.8220000   0.9730000  -4.6970000  -1.0690000  -0.3660000
  -1.8470000  -2.5580000  -1.6860000  -3.1290000  -3.1790000  -1.4750000
  -0.7250000  -3.5070000  -1.2550000  -0.7710000  -4.6820000  -2.0830000
   0.6360000  -2.8100000  -1.3930000   1.6700000  -3.6780000  -0.9280000
   2.4810000   2.8260000   0.3110000   1.3930000   2.9330000   1.2420000
   2.5520000   4.1300000  -0.4850000   3.7600000   4.1560000  -1.2640000
   1.3150000   4.2970000  -1.4050000   1.7660000   4.7910000  -2.6800000
  -0.5330000   1.0540000  -2.4660000   0.0700000   3.0320000  -3.7000000
  -1.1620000   3.7950000  -2.6580000  -0.0290000   2.7360000  -0.6650000
   3.3130000   1.3940000  -1.0810000   2.0930000  -0.4820000  -1.8120000
   2.7760000  -1.2770000  -0.3750000   0.4780000  -1.6900000   0.4720000
  -2.4900000  -0.5490000  -1.3030000  -2.8970000   1.5690000   1.6610000
  -2.6020000   1.2520000  -0.0560000  -0.4980000   0.5080000   0.5840000
  -4.2080000  -1.1250000   3.8020000  -2.4020000  -3.4880000   3.0310000
  -3.8210000  -3.6070000   4.1010000  -1.6880000  -1.7880000   4.4980000
  -4.1510000  -2.9570000   1.3450000  -6.3660000  -2.1570000   1.3340000
  -4.8800000   0.0120000   1.3530000  -4.2960000  -1.9150000  -0.6680000
  -1.7590000  -2.3550000  -2.7610000  -3.0500000  -4.0560000  -1.9050000
  -0.8880000  -3.8570000  -0.2280000  -0.2820000  -5.3760000  -1.6010000
   0.8330000  -2.6050000  -2.4530000   1.8060000  -4.3530000  -1.6180000
   3.3870000   2.6670000   0.9060000   1.0300000   2.0300000   1.3780000
   2.5950000   4.9820000   0.2030000   3.7250000   5.0010000  -1.7560000
   0.6370000   5.0500000  -0.9900000   2.3130000   4.0730000  -3.0590000
