%VERSION  VERSION_STAMP = V0001.000  DATE = 07/11/26  14:15:06                  
%FLAG TITLE                                                                     
%FORMAT(20a4)                                                                   
MOL                                                                             
%FLAG POINTERS                                                                  
%FORMAT(10I8)                                                                   
      66       6      32      36      70      54     157     169       0       0
     389       1      36      54     169       6      12      23       6       0
       0       0       0       0       0       0       0       0      66       0
       0
%FLAG ATOM_NAME                                                                 
%FORMAT(20a4)                                                                   
O1  C1  C2  O2  C3  O3  C4  C5  O4  C6  O5  C7  C8  O6  O7  C9  C10 O8  C11 O9  
C12 O10 C13 O11 C14 O12 C15 O13 C16 O14 C17 O15 C18 O16 H1  H2  H3  H4  H5  H6  
H7  H8  H9  H10 H11 H12 H13 H14 H15 H16 H17 H18 H19 H20 H21 H22 H23 H24 H25 H26 
H27 H28 H29 H30 H31 H32 
%FLAG CHARGE                                                                    
%FORMAT(5E16.8)                                                                 
 -1.11848477E+01  2.63130012E+00  1.02227103E+00 -8.24741298E+00  5.50131237E+00
 -8.35674678E+00  2.59485552E+00  2.46183273E+00 -8.15630148E+00  6.08442597E+00
 -8.48430288E+00  5.05851048E+00  2.26685412E+00 -1.07475125E+01 -7.00829658E+00
  1.71471843E+00  2.15752032E+00 -1.08932909E+01  1.64182923E+00 -1.06564010E+01
  1.35027243E+00 -1.07657348E+01  2.38894353E+00 -1.09844024E+01  1.20449403E+00
 -1.10755139E+01  1.62360693E+00 -1.07475125E+01  2.55294423E+00 -1.08021794E+01
  2.04271983E+00 -1.10572916E+01  1.69649613E+00 -1.09479578E+01  7.70803290E+00
  1.06053786E+00  1.06053786E+00  1.94431941E+00  1.52520651E+00  1.17898281E+00
  1.17898281E+00  1.68920721E+00  2.21765391E+00  1.34298351E+00  1.34298351E+00
  7.68981060E+00  2.01720861E+00  9.60315210E-01  9.60315210E-01  7.61692140E+00
  1.08787131E+00  7.48936530E+00  1.87143021E+00  7.87203360E+00  1.23364971E+00
  7.85381130E+00  1.56165111E+00  7.54403220E+00  1.06964901E+00  7.45292070E+00
  1.27009431E+00  8.03603430E+00  1.27009431E+00  7.72625520E+00  1.67098491E+00
  7.61692140E+00
%FLAG ATOMIC_NUMBER                                                             
%FORMAT(10I8)                                                                   
       8       6       6       8       6       8       6       6       8       6
       8       6       6       8       8       6       6       8       6       8
       6       8       6       8       6       8       6       8       6       8
       6       8       6       8       1       1       1       1       1       1
       1       1       1       1       1       1       1       1       1       1
       1       1       1       1       1       1       1       1       1       1
       1       1       1       1       1       1
%FLAG MASS                                                                      
%FORMAT(5E16.8)                                                                 
  1.60000000E+01  1.20100000E+01  1.20100000E+01  1.60000000E+01  1.20100000E+01
  1.60000000E+01  1.20100000E+01  1.20100000E+01  1.60000000E+01  1.20100000E+01
  1.60000000E+01  1.20100000E+01  1.20100000E+01  1.60000000E+01  1.60000000E+01
  1.20100000E+01  1.20100000E+01  1.60000000E+01  1.20100000E+01  1.60000000E+01
  1.20100000E+01  1.60000000E+01  1.20100000E+01  1.60000000E+01  1.20100000E+01
  1.60000000E+01  1.20100000E+01  1.60000000E+01  1.20100000E+01  1.60000000E+01
  1.20100000E+01  1.60000000E+01  1.20100000E+01  1.60000000E+01  1.00800000E+00
  1.00800000E+00  1.00800000E+00  1.00800000E+00  1.00800000E+00  1.00800000E+00
  1.00800000E+00  1.00800000E+00  1.00800000E+00  1.00800000E+00  1.00800000E+00
  1.00800000E+00  1.00800000E+00  1.00800000E+00  1.00800000E+00  1.00800000E+00
  1.00800000E+00  1.00800000E+00  1.00800000E+00  1.00800000E+00  1.00800000E+00
  1.00800000E+00  1.00800000E+00  1.00800000E+00  1.00800000E+00  1.00800000E+00
  1.00800000E+00  1.00800000E+00  1.00800000E+00  1.00800000E+00  1.00800000E+00
  1.00800000E+00
%FLAG ATOM_TYPE_INDEX                                                           
%FORMAT(10I8)                                                                   
       1       2       2       3       2       3       2       2       3       2
       3       2       2       1       3       2       2       1       2       1
       2       1       2       1       2       1       2       1       2       1
       2       1       2       1       4       5       5       5       6       5
       5       5       6       5       5       4       5       5       5       4
       5       4       5       4       5       4       5       4       5       4
       5       4       5       4       5       4
%FLAG NUMBER_EXCLUDED_ATOMS                                                     
%FORMAT(10I8)                                                                   
       8      11      16      14      15      12      12      15      14      15
      16      18      10       5      14      13       9       5      10       6
       8       3      11       7      11       6       9       4      11       7
      11       6       9       4       2       2       1       1       1       2
       1       1       1       2       1       1       3       2       1       1
       2       1       1       1       2       1       2       1       1       1
       2       1       2       1       1       1
%FLAG NONBONDED_PARM_INDEX                                                      
%FORMAT(10I8)                                                                   
       1       2       4       7      11      16       2       3       5       8
      12      17       4       5       6       9      13      18       7       8
       9      10      14      19      11      12      13      14      15      20
      16      17      18      19      20      21
%FLAG RESIDUE_LABEL                                                             
%FORMAT(20a4)                                                                   
MOL 
%FLAG RESIDUE_POINTER                                                           
%FORMAT(10I8)                                                                   
       1
%FLAG BOND_FORCE_CONSTANT                                                       
%FORMAT(5E16.8)                                                                 
  2.93400000E+02  5.63500000E+02  2.32500000E+02  3.75900000E+02  2.84800000E+02
  3.77300000E+02
%FLAG BOND_EQUIL_VALUE                                                          
%FORMAT(5E16.8)                                                                 
  1.42300000E+00  9.73000000E-01  1.53800000E+00  1.09700000E+00  1.43200000E+00
  1.09600000E+00
%FLAG ANGLE_FORCE_CONSTANT                                                      
%FORMAT(5E16.8)                                                                 
  8.46000000E+01  6.25000000E+01  4.90000000E+01  8.53000000E+01  6.49000000E+01
  4.69000000E+01  6.63000000E+01  6.24000000E+01  1.10900000E+02  6.24000000E+01
  4.67000000E+01  3.88000000E+01
%FLAG ANGLE_EQUIL_VALUE                                                         
%FORMAT(5E16.8)                                                                 
  1.92317913E+00  1.92440086E+00  1.87204096E+00  1.88443280E+00  1.94621748E+00
  1.91218355E+00  1.96314718E+00  1.91602327E+00  1.89001786E+00  1.91253261E+00
  1.92370273E+00  1.89298492E+00
%FLAG DIHEDRAL_FORCE_CONSTANT                                                   
%FORMAT(5E16.8)                                                                 
  2.00000000E-02  0.00000000E+00  1.01000000E+00  2.10000000E-01  2.50000000E-01
  0.00000000E+00  0.00000000E+00  1.60000000E-01  2.40000000E-01  1.10000000E-01
  2.90000000E-01  1.30000000E-01  1.55555556E-01  9.70000000E-01  1.24000000E+00
  0.00000000E+00  3.83333333E-01  3.37000000E-01  1.70000000E-01  0.00000000E+00
  1.13000000E+00  9.00000000E-01  1.13000000E-01
%FLAG DIHEDRAL_PERIODICITY                                                      
%FORMAT(5E16.8)                                                                 
  1.00000000E+00  2.00000000E+00  3.00000000E+00  3.00000000E+00  1.00000000E+00
  3.00000000E+00  1.00000000E+00  2.00000000E+00  3.00000000E+00  1.00000000E+00
  2.00000000E+00  3.00000000E+00  3.00000000E+00  1.00000000E+00  2.00000000E+00
  3.00000000E+00  3.00000000E+00  3.00000000E+00  1.00000000E+00  2.00000000E+00
  2.00000000E+00  3.00000000E+00  3.00000000E+00
%FLAG DIHEDRAL_PHASE                                                            
%FORMAT(5E16.8)                                                                 
  3.14159400E+00  0.00000000E+00  0.00000000E+00  0.00000000E+00  0.00000000E+00
  0.00000000E+00  0.00000000E+00  0.00000000E+00  0.00000000E+00  0.00000000E+00
  3.14159400E+00  0.00000000E+00  0.00000000E+00  3.14159400E+00  0.00000000E+00
  3.14159400E+00  0.00000000E+00  0.00000000E+00  3.14159400E+00  3.14159400E+00
  0.00000000E+00  0.00000000E+00  0.00000000E+00
%FLAG SCEE_SCALE_FACTOR                                                         
%FORMAT(5E16.8)                                                                 
  1.20000000E+00  1.20000000E+00  1.20000000E+00  1.20000000E+00  1.20000000E+00
  1.20000000E+00  1.20000000E+00  1.20000000E+00  1.20000000E+00  1.20000000E+00
  1.20000000E+00  1.20000000E+00  1.20000000E+00  1.20000000E+00  1.20000000E+00
  1.20000000E+00  1.20000000E+00  1.20000000E+00  1.20000000E+00  1.20000000E+00
  1.20000000E+00  1.20000000E+00  1.20000000E+00
%FLAG SCNB_SCALE_FACTOR                                                         
%FORMAT(5E16.8)                                                                 
  2.00000000E+00  2.00000000E+00  2.00000000E+00  2.00000000E+00  2.00000000E+00
  2.00000000E+00  2.00000000E+00  2.00000000E+00  2.00000000E+00  2.00000000E+00
  2.00000000E+00  2.00000000E+00  2.00000000E+00  2.00000000E+00  2.00000000E+00
  2.00000000E+00  2.00000000E+00  2.00000000E+00  2.00000000E+00  2.00000000E+00
  2.00000000E+00  2.00000000E+00  2.00000000E+00
%FLAG SOLTY                                                                     
%FORMAT(5E16.8)                                                                 
  0.00000000E+00  0.00000000E+00  0.00000000E+00  0.00000000E+00  0.00000000E+00
  0.00000000E+00
%FLAG LENNARD_JONES_ACOEF                                                       
%FORMAT(5E16.8)                                                                 
  5.03152404E+05  7.18991463E+05  1.02073671E+06  3.78207390E+05  5.42502534E+05
  2.83662575E+05  1.74176419E+02  3.03553352E+02  1.16469347E+02  1.10360882E-05
  4.69084694E+04  6.97998263E+04  3.44374471E+04  4.36660257E+00  3.39005767E+03
  3.19666529E+04  4.80619274E+04  2.33261683E+04  2.07292270E+00  2.16218723E+03
  1.35510742E+03
%FLAG LENNARD_JONES_BCOEF                                                       
%FORMAT(5E16.8)                                                                 
  4.32634597E+02  5.36620538E+02  6.63431737E+02  3.52573684E+02  4.38146883E+02
  2.87011518E+02  3.81654050E+00  5.22789272E+00  2.93355636E+00  4.55498033E-04
  9.08431526E+01  1.14981426E+02  7.31636661E+01  4.15568027E-01  1.67944276E+01
  7.49920368E+01  9.54115851E+01  6.02145835E+01  2.86326700E-01  1.34124560E+01
  1.06181419E+01
%FLAG BONDS_INC_HYDROGEN                                                        
%FORMAT(10I8)                                                                   
       0     102       2       3     105       4       3     108       4       6
     111       4      12     114       6      18     117       4      18     120
       4      21     123       4      27     126       6      36     129       4
      36     132       4      39     135       2      45     138       4      48
     141       4      48     144       4      51     147       2      54     150
       4      57     153       2      60     156       4      63     159       2
      66     162       4      69     165       2      72     168       4      75
     171       2      78     174       4      81     177       2      84     180
       4      87     183       2      90     186       4      93     189       2
      96     192       4      99     195       2
%FLAG BONDS_WITHOUT_HYDROGEN                                                    
%FORMAT(10I8)                                                                   
       0       3       1       3       6       3       6       9       5       6
      96       3       9      12       5      12      15       5      12      84
       3      15      18       5      18      21       3      21      24       5
      21      78       3      24      27       5      27      30       5      27
      66       3      30      33       5      33      36       3      33      42
       5      33      60       3      36      39       1      42      45       5
      45      48       3      45      54       3      48      51       1      54
      57       1      54      60       3      60      63       1      66      69
       1      66      72       3      72      75       1      72      78       3
      78      81       1      84      87       1      84      90       3      90
      93       1      90      96       3      96      99       1
%FLAG ANGLES_INC_HYDROGEN                                                       
%FORMAT(10I8)                                                                   
       0       3     105       2       0       3     108       2       3       0
     102       3       3       6     111       6       6       3     105       6
       6       3     108       6       6      96     192       6       9       6
     111       8       9      12     114      10      12      84     180       6
      15      12     114      10      15      18     117       8      15      18
     120       8      18      21     123       6      21      18     117       6
      21      18     120       6      21      78     174       6      24      21
     123       8      24      27     126      10      27      66     162       6
      30      27     126      10      33      36     129       6      33      36
     132       6      33      60     156       6      36      39     135       3
      39      36     129       2      39      36     132       2      42      45
     138       8      45      48     141       6      45      48     144       6
      45      54     150       6      48      45     138       6      48      51
     147       3      51      48     141       2      51      48     144       2
      54      45     138       6      54      57     153       3      54      60
     156       6      57      54     150       2      60      54     150       6
      60      63     159       3      63      60     156       2      66      27
     126      11      66      69     165       3      66      72     168       6
      69      66     162       2      72      66     162       6      72      75
     171       3      72      78     174       6      75      72     168       2
      78      72     168       6      78      81     177       3      78      21
     123       6      81      78     174       2      84      12     114      11
      84      87     183       3      84      90     186       6      87      84
     180       2      90      84     180       6      90      93     189       3
      90      96     192       6      93      90     186       2      96      90
     186       6      96      99     195       3      96       6     111       6
      99      96     192       2     105       3     108      12     117      18
     120      12     129      36     132      12     141      48     144      12
%FLAG ANGLES_WITHOUT_HYDROGEN                                                   
%FORMAT(10I8)                                                                   
       0       3       6       1       3       6       9       4       3       6
      96       5       6       9      12       7       6      96      90       5
       6      96      99       1       9       6      96       4       9      12
      15       9       9      12      84       4      12      15      18       7
      12      84      87       1      12      84      90       5      15      12
      84       4      15      18      21       4      18      21      24       4
      18      21      78       5      21      24      27       7      21      78
      72       5      21      78      81       1      24      21      78       4
      24      27      30       9      24      27      66       4      27      30
      33       7      27      66      69       1      27      66      72       5
      30      27      66       4      30      33      36       4      30      33
      42       9      30      33      60       4      33      36      39       1
      33      42      45       7      33      60      54       5      33      60
      63       1      36      33      42       4      36      33      60       5
      42      33      60       4      42      45      48       4      42      45
      54       4      45      48      51       1      45      54      57       1
      45      54      60       5      48      45      54       5      54      60
      63       1      57      54      60       1      66      72      75       1
      66      72      78       5      69      66      72       1      72      78
      81       1      75      72      78       1      84      90      93       1
      84      90      96       5      87      84      90       1      90      96
      99       1      93      90      96       1
%FLAG DIHEDRALS_INC_HYDROGEN                                                    
%FORMAT(10I8)                                                                   
       0       3       6     111       5       0       3      -6     111       6
       3       6      96     192      13     102       0       3       6       6
       6       9      12     114      17       6      96      90     186      13
       6      96      99     195       6       9       6       3     105       5
       9       6      -3     105       6       9       6       3     108       5
       9       6      -3     108       6       9       6      96     192       5
       9       6     -96     192       6       9      12      84     180       5
       9      12     -84     180       6      12       9       6     111      18
      12      15      18     117      18      12      15      18     120      18
      12      84      87     183       6      12      84      90     186      13
      15      12      84     180       5      15      12     -84     180       6
      15      18      21     123       5      15      18     -21     123       6
      18      15      12     114      17      18      21      78     174      13
      21      24      27     126      17      21      78      72     168      13
      21      78      81     177       6      24      21      18     117       5
      24      21     -18     117       6      24      21      18     120       5
      24      21     -18     120       6      24      21      78     174       5
      24      21     -78     174       6      24      27      66     162       5
      24      27     -66     162       6      27      24      21     123      18
      27      66      69     165       6      27      66      72     168      13
      30      27      66     162       5      30      27     -66     162       6
      30      33      36     129       5      30      33     -36     129       6
      30      33      36     132       5      30      33     -36     132       6
      30      33      60     156       5      30      33     -60     156       6
      33      30      27     126      17      33      36      39     135       6
      33      42      45     138      18      33      60      54     150      13
      33      60      63     159       6      36      33      60     156      13
      42      33      36     129       5      42      33     -36     129       6
      42      33      36     132       5      42      33     -36     132       6
      42      33      60     156       5      42      33     -60     156       6
      42      45      48     141       5      42      45     -48     141       6
      42      45      48     144       5      42      45     -48     144       6
      42      45      54     150       5      42      45     -54     150       6
      45      48      51     147       6      45      54      57     153       6
      45      54      60     156      13      48      45      54     150      13
      51      48      45     138       5      51      48     -45     138       6
      54      45      48     141      13      54      45      48     144      13
      54      60      63     159       6      57      54      45     138       5
      57      54     -45     138       6      57      54      60     156       5
      57      54     -60     156       6      60      54      45     138      13
      60      54      57     153       6      60      33      36     129      13
      60      33      36     132      13      63      60      54     150       5
      63      60     -54     150       6      66      72      75     171       6
      66      72      78     174      13      69      66      27     126      13
      69      66      72     168       5      69      66     -72     168       6
      72      66      27     126      13      72      66      69     165       6
      72      78      81     177       6      72      78      21     123      13
      75      72      66     162       5      75      72     -66     162       6
      75      72      78     174       5      75      72     -78     174       6
      78      72      66     162      13      78      72      75     171       6
      78      21      18     117      13      78      21      18     120      13
      81      78      72     168       5      81      78     -72     168       6
      81      78      21     123       5      81      78     -21     123       6
      84      90      93     189       6      84      90      96     192      13
      87      84      12     114      13      87      84      90     186       5
      87      84     -90     186       6      90      84      12     114      13
      90      84      87     183       6      90      96      99     195       6
      90      96       6     111      13      93      90      84     180       5
      93      90     -84     180       6      93      90      96     192       5
      93      90     -96     192       6      96      90      84     180      13
      96      90      93     189       6      96       6       3     105      13
      96       6       3     108      13      99      96      90     186       5
      99      96     -90     186       6      99      96       6     111       5
      99      96      -6     111       6     102       0       3     105      23
     102       0       3     108      23     105       3       6     111      13
     108       3       6     111      13     111       6      96     192      13
     114      12      84     180      13     117      18      21     123      13
     120      18      21     123      13     123      21      78     174      13
     126      27      66     162      13     129      36      39     135      23
     132      36      39     135      23     138      45      48     141      13
     138      45      48     144      13     138      45      54     150      13
     141      48      51     147      23     144      48      51     147      23
     150      54      57     153      23     150      54      60     156      13
     156      60      63     159      23     162      66      69     165      23
     162      66      72     168      13     168      72      75     171      23
     168      72      78     174      13     174      78      81     177      23
     180      84      87     183      23     180      84      90     186      13
     186      90      93     189      23     186      90      96     192      13
     192      96      99     195      23
%FLAG DIHEDRALS_WITHOUT_HYDROGEN                                                
%FORMAT(10I8)                                                                   
       0       3       6       9       1       0       3      -6       9       2
       0       3      -6       9       3       0       3       6      96       4
       3       6       9      12       7       3       6      -9      12       8
       3       6      -9      12       9       3       6      96      90      10
       3       6     -96      90      11       3       6     -96      90      12
       3       6      96      99       4       6       9      12      15      14
       6       9     -12      15      15       6       9     -12      15      16
       6       9      12      84       7       6       9     -12      84       8
       6       9     -12      84       9       6      96     -90      84      10
       6      96     -90      84      11       6      96     -90      84      12
       6      96      90      93       4       9       6      96      90      13
       9       6      96      99       1       9       6     -96      99       2
       9       6     -96      99       3       9      12      15      18      14
       9      12     -15      18      15       9      12     -15      18      16
       9      12      84      87       1       9      12     -84      87       2
       9      12     -84      87       3       9      12     -84      90      13
      12       9       6      96       7      12       9      -6      96       8
      12       9      -6      96       9      12      15      18      21       7
      12      15     -18      21       8      12      15     -18      21       9
      12      84      90      93       4      12      84     -90      96      10
      12      84     -90      96      11      12      84     -90      96      12
      15      12      84      87       1      15      12     -84      87       2
      15      12     -84      87       3      15      12      84      90      13
      15      18      21      24      19      15      18     -21      24      20
      15      18     -21      24       6      15      18      21      78      13
      18      15      12      84       7      18      15     -12      84       8
      18      15     -12      84       9      18      21      24      27       7
      18      21     -24      27       8      18      21     -24      27       9
      18      21      78      72      10      18      21     -78      72      11
      18      21     -78      72      12      18      21      78      81       4
      21      24      27      30      14      21      24     -27      30      15
      21      24     -27      30      16      21      24      27      66       7
      21      24     -27      66       8      21      24     -27      66       9
      21      78     -72      66      10      21      78     -72      66      11
      21      78     -72      66      12      21      78      72      75       4
      24      21      78      72      13      24      21      78      81       1
      24      21     -78      81       2      24      21     -78      81       3
      24      27      30      33      14      24      27     -30      33      15
      24      27     -30      33      16      24      27      66      69       1
      24      27     -66      69       2      24      27     -66      69       3
      24      27     -66      72      13      27      24      21      78       7
      27      24     -21      78       8      27      24     -21      78       9
      27      30      33      36       7      27      30     -33      36       8
      27      30     -33      36       9      27      30      33      42      14
      27      30     -33      42      15      27      30     -33      42      16
      27      30      33      60       7      27      30     -33      60       8
      27      30     -33      60       9      27      66      72      75       4
      27      66     -72      78      10      27      66     -72      78      11
      27      66     -72      78      12      30      27      66      69       1
      30      27     -66      69       2      30      27     -66      69       3
      30      27      66      72      13      30      33      36      39       1
      30      33     -36      39       2      30      33     -36      39       3
      30      33      42      45      14      30      33     -42      45      15
      30      33     -42      45      16      30      33      60      54      13
      30      33      60      63       1      30      33     -60      63       2
      30      33     -60      63       3      33      30      27      66       7
      33      30     -27      66       8      33      30     -27      66       9
      33      42      45      48       7      33      42     -45      48       8
      33      42     -45      48       9      33      42     -45      54       7
      33      42     -45      54       8      33      42     -45      54       9
      33      60     -54      45      10      33      60     -54      45      11
      33      60     -54      45      12      33      60      54      57       4
      36      33      42      45       7      36      33     -42      45       8
      36      33     -42      45       9      36      33      60      54      10
      36      33     -60      54      11      36      33     -60      54      12
      36      33      60      63       4      39      36      33      42       1
      39      36     -33      42       2      39      36     -33      42       3
      39      36      33      60       4      42      33     -60      54      13
      42      33      60      63       1      42      33     -60      63       2
      42      33     -60      63       3      42      45      48      51       1
      42      45     -48      51       2      42      45     -48      51       3
      42      45      54      57       1      42      45     -54      57       2
      42      45     -54      57       3      42      45     -54      60      13
      45      42     -33      60       7      45      42     -33      60       8
      45      42     -33      60       9      45      54      60      63       4
      48      45      54      57       4      48      45      54      60      10
      48      45     -54      60      11      48      45     -54      60      12
      51      48      45      54       4      57      54      60      63      21
      57      54     -60      63      22      66      72      78      81       4
      69      66      72      75      21      69      66     -72      75      22
      69      66      72      78       4      75      72      78      81      21
      75      72     -78      81      22      84      90      96      99       4
      87      84      90      93      21      87      84     -90      93      22
      87      84      90      96       4      93      90      96      99      21
      93      90     -96      99      22
%FLAG EXCLUDED_ATOMS_LIST                                                       
%FORMAT(10I8)                                                                   
       2       3       4      33      35      36      37      38       3       4
       5      31      33      34      35      36      37      38      65       4
       5       6      29      31      32      33      34      35      36      37
      38      39      63      65      66       5       6       7      29      30
      31      33      34      36      37      38      39      61      65       6
       7       8      29      30      31      32      33      38      39      40
      41      61      62      63       7       8       9      27      29      30
      31      39      40      41      42      61       8       9      10      25
      27      28      29      39      40      41      42      59       9      10
      11      23      25      26      27      28      40      41      42      43
      57      59      60      10      11      12      23      24      25      27
      28      40      41      42      43      55      59      11      12      13
      15      21      23      24      25      26      27      42      43      55
      56      57      12      13      14      15      16      19      21      22
      23      24      25      43      44      45      53      55      13      14
      15      16      17      19      20      21      22      23      43      44
      45      46      47      51      53      54      14      15      16      19
      21      22      44      45      46      53      15      21      44      45
      46      16      17      18      19      20      21      22      44      45
      47      48      49      51      53      17      18      19      20      21
      22      47      48      49      50      51      52      53      18      19
      20      21      47      48      49      50      51      19      47      48
      49      50      20      21      22      47      48      49      51      52
      53      54      21      22      47      51      52      53      22      44
      45      47      51      52      53      54      51      53      54      24
      25      26      27      28      43      55      56      57      58      59
      25      26      27      43      55      56      57      26      27      28
      42      43      55      56      57      58      59      60      27      28
      55      57      58      59      28      40      41      42      55      57
      58      59      60      42      57      59      60      30      31      32
      33      34      39      61      62      63      64      65      31      32
      33      39      61      62      63      32      33      34      38      39
      61      62      63      64      65      66      33      34      61      63
      64      65      34      36      37      38      61      63      64      65
      66      38      63      65      66      36      37      37      38      38
      65      61      41      42      42      59      55      45      46      46
       0      48      49      51      49      50      50       0      52      53
       0      54       0      56      57       0      58      59       0      60
       0      62      63       0      64      65       0      66       0
%FLAG HBOND_ACOEF                                                               
%FORMAT(5E16.8)                                                                 

%FLAG HBOND_BCOEF                                                               
%FORMAT(5E16.8)                                                                 

%FLAG HBCUT                                                                     
%FORMAT(5E16.8)                                                                 

%FLAG AMBER_ATOM_TYPE                                                           
%FORMAT(20a4)                                                                   
oh  c3  c3  os  c3  os  c3  c3  os  c3  os  c3  c3  oh  os  c3  c3  oh  c3  oh  
c3  oh  c3  oh  c3  oh  c3  oh  c3  oh  c3  oh  c3  oh  ho  h1  h1  h1  h2  h1  
h1  h1  h2  h1  h1  ho  h1  h1  h1  ho  h1  ho  h1  ho  h1  ho  h1  ho  h1  ho  
h1  ho  h1  ho  h1  ho  
%FLAG TREE_CHAIN_CLASSIFICATION                                                 
%FORMAT(20a4)                                                                   
BLA BLA BLA BLA BLA BLA BLA BLA BLA BLA BLA BLA BLA BLA BLA BLA BLA BLA BLA BLA 
BLA BLA BLA BLA BLA BLA BLA BLA BLA BLA BLA BLA BLA BLA BLA BLA BLA BLA BLA BLA 
BLA BLA BLA BLA BLA BLA BLA BLA BLA BLA BLA BLA BLA BLA BLA BLA BLA BLA BLA BLA 
BLA BLA BLA BLA BLA BLA 
%FLAG JOIN_ARRAY                                                                
%FORMAT(10I8)                                                                   
       0       0       0       0       0       0       0       0       0       0
       0       0       0       0       0       0       0       0       0       0
       0       0       0       0       0       0       0       0       0       0
       0       0       0       0       0       0       0       0       0       0
       0       0       0       0       0       0       0       0       0       0
       0       0       0       0       0       0       0       0       0       0
       0       0       0       0       0       0
%FLAG IROTAT                                                                    
%FORMAT(10I8)                                                                   
       0       0       0       0       0       0       0       0       0       0
       0       0       0       0       0       0       0       0       0       0
       0       0       0       0       0       0       0       0       0       0
       0       0       0       0       0       0       0       0       0       0
       0       0       0       0       0       0       0       0       0       0
       0       0       0       0       0       0       0       0       0       0
       0       0       0       0       0       0
%FLAG RADIUS_SET                                                                
%FORMAT(1a80)                                                                   
modified Bondi radii (mbondi)                                                   
%FLAG RADII                                                                     
%FORMAT(5E16.8)                                                                 
  1.50000000E+00  1.70000000E+00  1.70000000E+00  1.50000000E+00  1.70000000E+00
  1.50000000E+00  1.70000000E+00  1.70000000E+00  1.50000000E+00  1.70000000E+00
  1.50000000E+00  1.70000000E+00  1.70000000E+00  1.50000000E+00  1.50000000E+00
  1.70000000E+00  1.70000000E+00  1.50000000E+00  1.70000000E+00  1.50000000E+00
  1.70000000E+00  1.50000000E+00  1.70000000E+00  1.50000000E+00  1.70000000E+00
  1.50000000E+00  1.70000000E+00  1.50000000E+00  1.70000000E+00  1.50000000E+00
  1.70000000E+00  1.50000000E+00  1.70000000E+00  1.50000000E+00  8.00000000E-01
  1.30000000E+00  1.30000000E+00  1.30000000E+00  1.30000000E+00  1.30000000E+00
  1.30000000E+00  1.30000000E+00  1.30000000E+00  1.30000000E+00  1.30000000E+00
  8.00000000E-01  1.30000000E+00  1.30000000E+00  1.30000000E+00  8.00000000E-01
  1.30000000E+00  8.00000000E-01  1.30000000E+00  8.00000000E-01  1.30000000E+00
  8.00000000E-01  1.30000000E+00  8.00000000E-01  1.30000000E+00  8.00000000E-01
  1.30000000E+00  8.00000000E-01  1.30000000E+00  8.00000000E-01  1.30000000E+00
  8.00000000E-01
%FLAG SCREEN                                                                    
%FORMAT(5E16.8)                                                                 
  8.50000000E-01  7.20000000E-01  7.20000000E-01  8.50000000E-01  7.20000000E-01
  8.50000000E-01  7.20000000E-01  7.20000000E-01  8.50000000E-01  7.20000000E-01
  8.50000000E-01  7.20000000E-01  7.20000000E-01  8.50000000E-01  8.50000000E-01
  7.20000000E-01  7.20000000E-01  8.50000000E-01  7.20000000E-01  8.50000000E-01
  7.20000000E-01  8.50000000E-01  7.20000000E-01  8.50000000E-01  7.20000000E-01
  8.50000000E-01  7.20000000E-01  8.50000000E-01  7.20000000E-01  8.50000000E-01
  7.20000000E-01  8.50000000E-01  7.20000000E-01  8.50000000E-01  8.50000000E-01
  8.50000000E-01  8.50000000E-01  8.50000000E-01  8.50000000E-01  8.50000000E-01
  8.50000000E-01  8.50000000E-01  8.50000000E-01  8.50000000E-01  8.50000000E-01
  8.50000000E-01  8.50000000E-01  8.50000000E-01  8.50000000E-01  8.50000000E-01
  8.50000000E-01  8.50000000E-01  8.50000000E-01  8.50000000E-01  8.50000000E-01
  8.50000000E-01  8.50000000E-01  8.50000000E-01  8.50000000E-01  8.50000000E-01
  8.50000000E-01  8.50000000E-01  8.50000000E-01  8.50000000E-01  8.50000000E-01
  8.50000000E-01
%FLAG IPOL                                                                      
%FORMAT(1I8)                                                                    
       0
