%VERSION  VERSION_STAMP = V0001.000  DATE = 07/11/26  13:53:53                  
%FLAG TITLE                                                                     
%FORMAT(20a4)                                                                   
MOL                                                                             
%FLAG POINTERS                                                                  
%FORMAT(10I8)                                                                   
      51       9      29      21      66      22     107      33       0       0
     260       1      21      22      33      17      28      22      12       0
       0       0       0       0       0       0       0       0      51       0
       0
%FLAG ATOM_NAME                                                                 
%FORMAT(20a4)                                                                   
C1  C2  C3  C4  C5  C6  C7  C8  C9  C10 C11 C12 C13 C14 C15 O1  N1  C16 C17 C18 
C19 C20 H1  H2  H3  H4  H5  H6  H7  H8  H9  H10 H11 H12 H13 H14 H15 H16 H17 H18 
H19 H20 H21 H22 H23 H24 H25 H26 H27 H28 H29 
%FLAG CHARGE                                                                    
%FORMAT(5E16.8)                                                                 
 -2.14112025E+00 -1.00222650E+00 -1.11156030E+00 -1.58716233E+00  5.44846770E-01
 -3.13788006E+00 -3.04676856E+00 -9.51204060E-01 -1.39218372E+00 -1.53796212E+00
 -1.46507292E+00 -1.13342706E+00 -1.42498386E+00 -4.61388636E+00  1.19228509E+01
 -1.12632036E+01 -1.02391104E+01  1.56711780E+00 -1.67098491E+00 -1.66005153E+00
 -1.46507292E+00 -1.75116303E+00  3.14334675E+00  1.30653891E+00  1.30653891E+00
  2.44178820E+00  2.25956520E+00  8.96537160E-01  8.96537160E-01  7.59869910E-01
  7.59869910E-01  8.14536810E-01  8.14536810E-01  7.96314510E-01  7.96314510E-01
  1.08787131E+00  1.08787131E+00  2.69690040E+00  2.40534360E+00  5.51224575E+00
  1.16076051E+00  1.16076051E+00  9.96759810E-01  6.86980710E-01  6.86980710E-01
  6.86980710E-01  7.68981060E-01  7.68981060E-01  5.95869210E-01  5.95869210E-01
  5.95869210E-01
%FLAG ATOMIC_NUMBER                                                             
%FORMAT(10I8)                                                                   
       6       6       6       6       6       6       6       6       6       6
       6       6       6       6       6       8       7       6       6       6
       6       6       1       1       1       1       1       1       1       1
       1       1       1       1       1       1       1       1       1       1
       1       1       1       1       1       1       1       1       1       1
       1
%FLAG MASS                                                                      
%FORMAT(5E16.8)                                                                 
  1.20100000E+01  1.20100000E+01  1.20100000E+01  1.20100000E+01  1.20100000E+01
  1.20100000E+01  1.20100000E+01  1.20100000E+01  1.20100000E+01  1.20100000E+01
  1.20100000E+01  1.20100000E+01  1.20100000E+01  1.20100000E+01  1.20100000E+01
  1.60000000E+01  1.40100000E+01  1.20100000E+01  1.20100000E+01  1.20100000E+01
  1.20100000E+01  1.20100000E+01  1.00800000E+00  1.00800000E+00  1.00800000E+00
  1.00800000E+00  1.00800000E+00  1.00800000E+00  1.00800000E+00  1.00800000E+00
  1.00800000E+00  1.00800000E+00  1.00800000E+00  1.00800000E+00  1.00800000E+00
  1.00800000E+00  1.00800000E+00  1.00800000E+00  1.00800000E+00  1.00800000E+00
  1.00800000E+00  1.00800000E+00  1.00800000E+00  1.00800000E+00  1.00800000E+00
  1.00800000E+00  1.00800000E+00  1.00800000E+00  1.00800000E+00  1.00800000E+00
  1.00800000E+00
%FLAG ATOM_TYPE_INDEX                                                           
%FORMAT(10I8)                                                                   
       1       1       1       1       2       3       3       2       2       2
       2       2       3       3       3       4       5       2       2       2
       2       2       6       7       7       6       6       7       7       7
       7       7       7       7       7       7       7       6       6       8
       9       9       7       7       7       7       7       7       7       7
       7
%FLAG NUMBER_EXCLUDED_ATOMS                                                     
%FORMAT(10I8)                                                                   
       4       4       6       6       7       9      11      11      12      13
      12      11      10       9       9       4       9      13      15      10
      12       6       1       2       1       1       2       3       2       3
       2       3       2       3       2       2       1       1       1       2
       2       1       5       2       1       1       4       3       2       1
       1
%FLAG NONBONDED_PARM_INDEX                                                      
%FORMAT(10I8)                                                                   
       1       2       4       7      11      16      22      29      37       2
       3       5       8      12      17      23      30      38       4       5
       6       9      13      18      24      31      39       7       8       9
      10      14      19      25      32      40      11      12      13      14
      15      20      26      33      41      16      17      18      19      20
      21      27      34      42      22      23      24      25      26      27
      28      35      43      29      30      31      32      33      34      35
      36      44      37      38      39      40      41      42      43      44
      45
%FLAG RESIDUE_LABEL                                                             
%FORMAT(20a4)                                                                   
MOL 
%FLAG RESIDUE_POINTER                                                           
%FORMAT(10I8)                                                                   
       1
%FLAG BOND_FORCE_CONSTANT                                                       
%FORMAT(5E16.8)                                                                 
  7.76800000E+02  4.33700000E+02  4.21800000E+02  2.95900000E+02  2.55600000E+02
  3.75900000E+02  4.81800000E+02  3.92200000E+02  2.32500000E+02  4.60500000E+02
  2.80400000E+02  3.91400000E+02  6.52600000E+02  3.56200000E+02  2.63800000E+02
  5.27300000E+02  3.75900000E+02
%FLAG BOND_EQUIL_VALUE                                                          
%FORMAT(5E16.8)                                                                 
  1.21600000E+00  1.06700000E+00  1.36900000E+00  1.46700000E+00  1.51000000E+00
  1.09700000E+00  1.33400000E+00  1.08800000E+00  1.53800000E+00  1.34600000E+00
  1.48200000E+00  1.08800000E+00  1.21800000E+00  1.37900000E+00  1.46200000E+00
  1.01300000E+00  1.09700000E+00
%FLAG ANGLE_FORCE_CONSTANT                                                      
%FORMAT(5E16.8)                                                                 
  6.04000000E+01  4.44000000E+01  5.78000000E+01  6.72000000E+01  4.89000000E+01
  6.61000000E+01  4.64000000E+01  4.75000000E+01  5.04000000E+01  6.55000000E+01
  6.49000000E+01  4.68000000E+01  6.61000000E+01  6.76000000E+01  5.01000000E+01
  5.00000000E+01  8.63000000E+01  8.57000000E+01  4.70000000E+01  6.53000000E+01
  4.87000000E+01  1.13800000E+02  8.32000000E+01  6.15000000E+01  4.61000000E+01
  4.69000000E+01  3.90000000E+01  3.88000000E+01
%FLAG ANGLE_EQUIL_VALUE                                                         
%FORMAT(5E16.8)                                                                 
  3.13583441E+00  3.12117364E+00  3.11419232E+00  1.93592004E+00  1.90956555E+00
  2.15775148E+00  2.01899774E+00  1.92614619E+00  2.10190092E+00  1.94709015E+00
  1.94621748E+00  1.91637234E+00  2.14937390E+00  2.10172639E+00  2.09334880E+00
  2.10224999E+00  2.15024656E+00  2.01096923E+00  2.03261132E+00  2.10643878E+00
  2.05163542E+00  2.14762857E+00  1.94796281E+00  1.90031530E+00  2.05390434E+00
  1.91218355E+00  1.87762601E+00  1.89298492E+00
%FLAG DIHEDRAL_FORCE_CONSTANT                                                   
%FORMAT(5E16.8)                                                                 
  0.00000000E+00  0.00000000E+00  4.00000000E-01  5.29000000E+00  6.65000000E+00
  1.47000000E+00  3.60000000E-01  1.55555556E-01  1.10000000E-01  2.90000000E-01
  1.30000000E-01  8.00000000E-02  2.17500000E+00  2.50000000E+00  1.02000000E+00
  1.70000000E-01  1.00000000E-01  2.00000000E+00  1.00000000E-01  1.20000000E-01
  1.10000000E+00  1.05000000E+01
%FLAG DIHEDRAL_PERIODICITY                                                      
%FORMAT(5E16.8)                                                                 
  2.00000000E+00  2.00000000E+00  1.00000000E+00  2.00000000E+00  2.00000000E+00
  1.00000000E+00  3.00000000E+00  3.00000000E+00  1.00000000E+00  2.00000000E+00
  3.00000000E+00  3.00000000E+00  2.00000000E+00  2.00000000E+00  1.00000000E+00
  3.00000000E+00  4.00000000E+00  1.00000000E+00  3.00000000E+00  3.00000000E+00
  2.00000000E+00  2.00000000E+00
%FLAG DIHEDRAL_PHASE                                                            
%FORMAT(5E16.8)                                                                 
  3.14159400E+00  0.00000000E+00  3.14159400E+00  3.14159400E+00  3.14159400E+00
  0.00000000E+00  3.14159400E+00  0.00000000E+00  0.00000000E+00  3.14159400E+00
  0.00000000E+00  0.00000000E+00  3.14159400E+00  3.14159400E+00  3.14159400E+00
  0.00000000E+00  3.14159400E+00  0.00000000E+00  0.00000000E+00  0.00000000E+00
  3.14159400E+00  3.14159400E+00
%FLAG SCEE_SCALE_FACTOR                                                         
%FORMAT(5E16.8)                                                                 
  1.20000000E+00  1.20000000E+00  1.20000000E+00  1.20000000E+00  1.20000000E+00
  1.20000000E+00  1.20000000E+00  1.20000000E+00  1.20000000E+00  1.20000000E+00
  1.20000000E+00  1.20000000E+00  1.20000000E+00  1.20000000E+00  1.20000000E+00
  1.20000000E+00  1.20000000E+00  1.20000000E+00  1.20000000E+00  1.20000000E+00
  0.00000000E+00  0.00000000E+00
%FLAG SCNB_SCALE_FACTOR                                                         
%FORMAT(5E16.8)                                                                 
  2.00000000E+00  2.00000000E+00  2.00000000E+00  2.00000000E+00  2.00000000E+00
  2.00000000E+00  2.00000000E+00  2.00000000E+00  2.00000000E+00  2.00000000E+00
  2.00000000E+00  2.00000000E+00  2.00000000E+00  2.00000000E+00  2.00000000E+00
  2.00000000E+00  2.00000000E+00  2.00000000E+00  2.00000000E+00  2.00000000E+00
  0.00000000E+00  0.00000000E+00
%FLAG SOLTY                                                                     
%FORMAT(5E16.8)                                                                 
  0.00000000E+00  0.00000000E+00  0.00000000E+00  0.00000000E+00  0.00000000E+00
  0.00000000E+00  0.00000000E+00  0.00000000E+00  0.00000000E+00  0.00000000E+00
  0.00000000E+00  0.00000000E+00
%FLAG LENNARD_JONES_ACOEF                                                       
%FORMAT(5E16.8)                                                                 
  2.00671338E+06  1.43239677E+06  1.02073671E+06  1.18640578E+06  8.43969952E+05
  6.96551276E+05  8.92208123E+05  6.30925504E+05  5.17507491E+05  3.76435470E+05
  1.19359607E+06  8.48258258E+05  6.99381362E+05  5.17814271E+05  7.01825028E+05
  1.32549375E+05  9.27554496E+04  7.52549148E+04  5.27277400E+04  7.48403283E+04
  6.90855956E+03  1.43334551E+05  1.00235148E+05  8.12662403E+04  5.68021765E+04
  8.07866982E+04  7.41026906E+03  7.94617769E+03  3.37137075E+03  2.23577481E+03
  1.71458823E+03  9.87857350E+02  1.65195713E+03  9.04434904E+01  9.47421632E+01
  1.34728399E-01  1.00303788E+05  6.97998263E+04  5.63013422E+04  3.86646725E+04
  5.58085097E+04  4.88692384E+03  5.22955465E+03  5.24570081E+01  3.39005767E+03
%FLAG LENNARD_JONES_BCOEF                                                       
%FORMAT(5E16.8)                                                                 
  1.13185062E+03  8.66911122E+02  6.63431737E+02  7.71958727E+02  5.90251928E+02
  5.24668528E+02  7.38469198E+02  5.62969425E+02  4.98871431E+02  4.69350655E+02
  8.08414196E+02  6.17825399E+02  5.48900066E+02  5.21008860E+02  5.74088001E+02
  1.63939471E+02  1.24325688E+02  1.09570372E+02  1.01173582E+02  1.14083104E+02
  2.10929191E+01  1.81752124E+02  1.37787728E+02  1.21392023E+02  1.11953944E+02
  1.26366740E+02  2.32899892E+01  2.57122925E+01  2.32108730E+01  1.71355763E+01
  1.46824710E+01  1.22938581E+01  1.50468782E+01  2.14252117E+00  2.33785449E+00
  7.34107347E-02  1.52041700E+02  1.14981426E+02  1.01040256E+02  9.23664132E+01
  1.05029928E+02  1.89134207E+01  2.08590256E+01  1.73959275E+00  1.67944276E+01
%FLAG BONDS_INC_HYDROGEN                                                        
%FORMAT(10I8)                                                                   
       0      66       2      12      69       6      12      72       6      15
      75       8      18      78       8      21      81       6      21      84
       6      24      87       6      24      90       6      27      93       6
      27      96       6      30      99       6      30     102       6      33
     105       6      33     108       6      36     111       8      39     114
      12      48     117      16      51     120      17      51     123      17
      54     126       6      57     129       6      57     132       6      57
     135       6      60     138       6      60     141       6      63     144
       6      63     147       6      63     150       6
%FLAG BONDS_WITHOUT_HYDROGEN                                                    
%FORMAT(10I8)                                                                   
       0       3       1       3       6       3       6       9       1       9
      12       4      12      15       5      15      18       7      18      21
       5      21      24       9      24      27       9      27      30       9
      30      33       9      33      36       5      36      39      10      39
      42      11      42      45      13      42      48      14      48      51
      15      51      54       9      54      57       9      54      60       9
      60      63       9
%FLAG ANGLES_INC_HYDROGEN                                                       
%FORMAT(10I8)                                                                   
       3       0      66       2       9      12      69       5       9      12
      72       5      12      15      75       7      15      12      69       8
      15      12      72       8      15      18      78       9      18      15
      75       9      18      21      81       8      18      21      84       8
      21      18      78       7      21      24      87      12      21      24
      90      12      24      21      81      12      24      21      84      12
      24      27      93      12      24      27      96      12      27      24
      87      12      27      24      90      12      27      30      99      12
      27      30     102      12      30      27      93      12      30      27
      96      12      30      33     105      12      30      33     108      12
      33      30      99      12      33      30     102      12      33      36
     111       7      36      33     105       8      36      33     108       8
      36      39     114      15      39      36     111      16      42      39
     114      19      42      48     117      21      48      51     120      24
      48      51     123      24      51      48     117      25      51      54
     126      12      54      51     120      26      54      51     123      26
      54      57     129      12      54      57     132      12      54      57
     135      12      54      60     138      12      54      60     141      12
      57      54     126      12      60      54     126      12      60      63
     144      12      60      63     147      12      60      63     150      12
      63      60     138      12      63      60     141      12      69      12
      72      27      81      21      84      27      87      24      90      27
      93      27      96      27      99      30     102      27     105      33
     108      27     120      51     123      28     129      57     132      27
     129      57     135      27     132      57     135      27     138      60
     141      27     144      63     147      27     144      63     150      27
     147      63     150      27
%FLAG ANGLES_WITHOUT_HYDROGEN                                                   
%FORMAT(10I8)                                                                   
       0       3       6       1       3       6       9       1       6       9
      12       3       9      12      15       4      12      15      18       6
      15      18      21       6      18      21      24      10      21      24
      27      11      24      27      30      11      27      30      33      11
      30      33      36      10      33      36      39      13      36      39
      42      14      39      42      45      17      39      42      48      18
      42      48      51      20      45      42      48      22      48      51
      54      23      51      54      57      11      51      54      60      11
      54      60      63      11      57      54      60      11
%FLAG DIHEDRALS_INC_HYDROGEN                                                    
%FORMAT(10I8)                                                                   
      66       0       3       6       1       6       9      12      69       1
       6       9      12      72       1       9      12      15      75       2
      12      15      18      78       5      15      18      21      81       6
      15      18     -21      81       7      15      18      21      84       6
      15      18     -21      84       7      18      15      12      69       6
      18      15     -12      69       7      18      15      12      72       6
      18      15     -12      72       7      18      21      24      87       8
      18      21      24      90       8      21      18      15      75       5
      21      24      27      93      12      21      24      27      96      12
      24      21      18      78       2      24      27      30      99      12
      24      27      30     102      12      27      24      21      81      12
      27      24      21      84      12      27      30      33     105      12
      27      30      33     108      12      30      27      24      87      12
      30      27      24      90      12      30      33      36     111       2
      33      30      27      93      12      33      30      27      96      12
      33      36      39     114       5      36      33      30      99       8
      36      33      30     102       8      39      36      33     105       2
      39      36      33     108       2      39      42      48     117      14
      42      39      36     111       5      42      48      51     120       1
      42      48      51     123       1      45      42      39     114      13
      45      42      48     117      18      45      42     -48     117      14
      48      42      39     114      13      48      51      54     126       8
      51      54      57     129      12      51      54      57     132      12
      51      54      57     135      12      51      54      60     138      12
      51      54      60     141      12      54      51      48     117       2
      54      60      63     144      12      54      60      63     147      12
      54      60      63     150      12      57      54      51     120       8
      57      54      51     123       8      57      54      60     138      12
      57      54      60     141      12      60      54      51     120       8
      60      54      51     123       8      60      54      57     129      12
      60      54      57     132      12      60      54      57     135      12
      63      60      54     126      12      69      12      15      75       2
      72      12      15      75       2      75      15      18      78       5
      78      18      21      81       2      78      18      21      84       2
      81      21      24      87      20      81      21      24      90      20
      84      21      24      87      20      84      21      24      90      20
      87      24      27      93      20      87      24      27      96      20
      90      24      27      93      20      90      24      27      96      20
      93      27      30      99      20      93      27      30     102      20
      96      27      30      99      20      96      27      30     102      20
      99      30      33     105      20      99      30      33     108      20
     102      30      33     105      20     102      30      33     108      20
     105      33      36     111       2     108      33      36     111       2
     111      36      39     114       5     117      48      51     120       2
     117      48      51     123       2     120      51      54     126       8
     123      51      54     126       8     126      54      57     129      20
     126      54      57     132      20     126      54      57     135      20
     126      54      60     138      20     126      54      60     141      20
     138      60      63     144      20     138      60      63     147      20
     138      60      63     150      20     141      60      63     144      20
     141      60      63     147      20     141      60      63     150      20
      18      12     -15     -75      21      15      21     -18     -78      21
      33      39     -36    -111      21      42      36     -39    -114      21
      42      51     -48    -117      21
%FLAG DIHEDRALS_WITHOUT_HYDROGEN                                                
%FORMAT(10I8)                                                                   
       0       3       6       9       1       3       6       9      12       1
       6       9      12      15       1       9      12      15      18       2
      12      15      18      21       3      12      15     -18      21       4
      15      18      21      24       2      18      21      24      27       8
      21      24      27      30       9      21      24     -27      30      10
      21      24     -27      30      11      24      27      30      33       9
      24      27     -30      33      10      24      27     -30      33      11
      27      30      33      36       8      30      33      36      39       2
      33      36      39      42       5      36      39      42      45      13
      36      39      42      48      13      39      42      48      51      14
      42      48      51      54      15      42      48     -51      54      16
      42      48     -51      54      17      45      42      48      51      14
      48      51      54      57      19      48      51      54      60      19
      51      54      60      63       9      51      54     -60      63      10
      51      54     -60      63      11      57      54      60      63       9
      57      54     -60      63      10      57      54     -60      63      11
      39      48     -42     -45      22
%FLAG EXCLUDED_ATOMS_LIST                                                       
%FORMAT(10I8)                                                                   
       2       3       4      23       3       4       5      23       4       5
       6      23      24      25       5       6       7      24      25      26
       6       7       8      24      25      26      27       7       8       9
      24      25      26      27      28      29       8       9      10      24
      25      26      27      28      29      30      31       9      10      11
      26      27      28      29      30      31      32      33      10      11
      12      27      28      29      30      31      32      33      34      35
      11      12      13      28      29      30      31      32      33      34
      35      36      37      12      13      14      30      31      32      33
      34      35      36      37      38      13      14      15      32      33
      34      35      36      37      38      39      14      15      16      17
      34      35      36      37      38      39      15      16      17      18
      36      37      38      39      40      16      17      18      19      38
      39      40      41      42      17      18      39      40      18      19
      20      21      39      40      41      42      43      19      20      21
      22      40      41      42      43      44      45      46      47      48
      20      21      22      40      41      42      43      44      45      46
      47      48      49      50      51      21      22      41      42      43
      44      45      46      47      48      22      41      42      43      44
      45      46      47      48      49      50      51      43      47      48
      49      50      51       0      25      26      26      27      28      29
      29      30      31      30      31      31      32      33      32      33
      33      34      35      34      35      35      36      37      36      37
      37      38      38      39       0      41      42      42      43      43
      44      45      46      47      48      45      46      46       0      48
      49      50      51      49      50      51      50      51      51       0
%FLAG HBOND_ACOEF                                                               
%FORMAT(5E16.8)                                                                 

%FLAG HBOND_BCOEF                                                               
%FORMAT(5E16.8)                                                                 

%FLAG HBCUT                                                                     
%FORMAT(5E16.8)                                                                 

%FLAG AMBER_ATOM_TYPE                                                           
%FORMAT(20a4)                                                                   
c1  cg  cg  c1  c3  c2  c2  c3  c3  c3  c3  c3  c2  ce  c   o   ns  c3  c3  c3  
c3  c3  ha  hc  hc  ha  ha  hc  hc  hc  hc  hc  hc  hc  hc  hc  hc  ha  ha  hn  
h1  h1  hc  hc  hc  hc  hc  hc  hc  hc  hc  
%FLAG TREE_CHAIN_CLASSIFICATION                                                 
%FORMAT(20a4)                                                                   
BLA BLA BLA BLA BLA BLA BLA BLA BLA BLA BLA BLA BLA BLA BLA BLA BLA BLA BLA BLA 
BLA BLA BLA BLA BLA BLA BLA BLA BLA BLA BLA BLA BLA BLA BLA BLA BLA BLA BLA BLA 
BLA BLA BLA BLA BLA BLA BLA BLA BLA BLA BLA 
%FLAG JOIN_ARRAY                                                                
%FORMAT(10I8)                                                                   
       0       0       0       0       0       0       0       0       0       0
       0       0       0       0       0       0       0       0       0       0
       0       0       0       0       0       0       0       0       0       0
       0       0       0       0       0       0       0       0       0       0
       0       0       0       0       0       0       0       0       0       0
       0
%FLAG IROTAT                                                                    
%FORMAT(10I8)                                                                   
       0       0       0       0       0       0       0       0       0       0
       0       0       0       0       0       0       0       0       0       0
       0       0       0       0       0       0       0       0       0       0
       0       0       0       0       0       0       0       0       0       0
       0       0       0       0       0       0       0       0       0       0
       0
%FLAG RADIUS_SET                                                                
%FORMAT(1a80)                                                                   
modified Bondi radii (mbondi)                                                   
%FLAG RADII                                                                     
%FORMAT(5E16.8)                                                                 
  1.70000000E+00  1.70000000E+00  1.70000000E+00  1.70000000E+00  1.70000000E+00
  1.70000000E+00  1.70000000E+00  1.70000000E+00  1.70000000E+00  1.70000000E+00
  1.70000000E+00  1.70000000E+00  1.70000000E+00  1.70000000E+00  1.70000000E+00
  1.50000000E+00  1.55000000E+00  1.70000000E+00  1.70000000E+00  1.70000000E+00
  1.70000000E+00  1.70000000E+00  1.30000000E+00  1.30000000E+00  1.30000000E+00
  1.30000000E+00  1.30000000E+00  1.30000000E+00  1.30000000E+00  1.30000000E+00
  1.30000000E+00  1.30000000E+00  1.30000000E+00  1.30000000E+00  1.30000000E+00
  1.30000000E+00  1.30000000E+00  1.30000000E+00  1.30000000E+00  1.30000000E+00
  1.30000000E+00  1.30000000E+00  1.30000000E+00  1.30000000E+00  1.30000000E+00
  1.30000000E+00  1.30000000E+00  1.30000000E+00  1.30000000E+00  1.30000000E+00
  1.30000000E+00
%FLAG SCREEN                                                                    
%FORMAT(5E16.8)                                                                 
  7.20000000E-01  7.20000000E-01  7.20000000E-01  7.20000000E-01  7.20000000E-01
  7.20000000E-01  7.20000000E-01  7.20000000E-01  7.20000000E-01  7.20000000E-01
  7.20000000E-01  7.20000000E-01  7.20000000E-01  7.20000000E-01  7.20000000E-01
  8.50000000E-01  7.90000000E-01  7.20000000E-01  7.20000000E-01  7.20000000E-01
  7.20000000E-01  7.20000000E-01  8.50000000E-01  8.50000000E-01  8.50000000E-01
  8.50000000E-01  8.50000000E-01  8.50000000E-01  8.50000000E-01  8.50000000E-01
  8.50000000E-01  8.50000000E-01  8.50000000E-01  8.50000000E-01  8.50000000E-01
  8.50000000E-01  8.50000000E-01  8.50000000E-01  8.50000000E-01  8.50000000E-01
  8.50000000E-01  8.50000000E-01  8.50000000E-01  8.50000000E-01  8.50000000E-01
  8.50000000E-01  8.50000000E-01  8.50000000E-01  8.50000000E-01  8.50000000E-01
  8.50000000E-01
%FLAG IPOL                                                                      
%FORMAT(1I8)                                                                    
       0
