MOL
    51
  -3.2850000   1.1140000  -0.4200000  -2.6040000   0.6930000   0.4740000
  -1.6940000   0.1500000   1.5890000  -0.9540000  -0.2750000   2.4330000
  -0.0190000  -0.7830000   3.4430000   1.1570000  -1.4180000   2.7580000
   2.4040000  -0.9310000   2.6370000   2.9320000   0.3770000   3.1570000
   3.2660000   1.3690000   2.0370000   2.0190000   1.9070000   1.3270000
   2.3920000   2.9250000   0.2440000   1.1690000   3.5460000  -0.4460000
   0.3530000   2.6880000  -1.3730000   0.6390000   1.4510000  -1.8110000
  -0.2950000   0.7410000  -2.7250000  -1.2920000   1.2680000  -3.2020000
   0.0860000  -0.5570000  -2.9630000  -0.6980000  -1.4400000  -3.8010000
  -1.8960000  -2.0650000  -3.0620000  -2.9520000  -2.4980000  -4.0860000
  -1.5160000  -3.2810000  -2.1920000  -0.5760000  -2.9700000  -1.0390000
  -3.8530000   1.4840000  -1.2420000  -0.5110000  -1.5370000   4.0680000
   0.2810000   0.0250000   4.1140000   0.9520000  -2.3900000   2.3100000
   3.1310000  -1.5390000   2.0990000   2.2450000   0.8460000   3.8680000
   3.8490000   0.1630000   3.7200000   3.8180000   2.2100000   2.4750000
   3.9350000   0.8970000   1.3060000   1.4610000   1.0770000   0.8840000
   1.3590000   2.3820000   2.0630000   2.9630000   3.7370000   0.7120000
   3.0570000   2.4660000  -0.4970000   0.4970000   3.9440000   0.3250000
   1.5120000   4.4120000  -1.0280000  -0.5730000   3.1530000  -1.7140000
   1.5420000   0.9360000  -1.5160000   0.9250000  -0.9210000  -2.5350000
  -0.0250000  -2.2160000  -4.1830000  -1.0430000  -0.8530000  -4.6600000
  -2.3600000  -1.3100000  -2.4150000  -3.2930000  -1.6430000  -4.6790000
  -3.8280000  -2.9250000  -3.5870000  -2.5520000  -3.2510000  -4.7740000
  -2.4330000  -3.7090000  -1.7690000  -1.0680000  -4.0650000  -2.8160000
   0.4370000  -2.7580000  -1.3920000  -0.9330000  -2.1160000  -0.4550000
  -0.5080000  -3.8330000  -0.3680000
