MOL
    35
   2.1950000  -5.7690000  -2.5820000   1.9070000  -4.4110000  -2.0610000
   2.6830000  -3.2700000  -2.0890000   2.1230000  -2.1490000  -1.5120000
   0.9290000  -2.4440000  -1.0580000   0.0190000  -1.6630000  -0.4220000
   0.1780000  -0.3330000  -0.1410000   1.1670000   0.3310000  -0.4530000
  -1.0210000   0.2970000   0.6180000  -2.1610000  -0.4150000   0.9240000
  -2.3760000  -1.6410000   0.6440000  -3.2840000   0.3130000   1.6480000
  -4.2140000  -0.3910000   2.4410000  -5.2980000   0.2490000   3.0560000
  -5.4840000   1.6190000   2.8930000  -4.5820000   2.3420000   2.1190000
  -3.5110000   1.6780000   1.5030000  -2.2870000   2.5910000   0.6620000
  -2.5420000   2.5490000  -0.7630000  -2.1810000   3.8730000   1.3410000
  -0.9210000   1.6820000   1.0620000   0.3450000   2.4210000   0.9530000
   0.4190000  -4.0610000  -1.2830000   1.4600000  -6.0590000  -3.3410000
   2.1740000  -6.5080000  -1.7750000   3.1860000  -5.8070000  -3.0450000
   3.6730000  -3.1950000  -2.5200000  -0.8770000  -2.0710000  -0.1280000
  -4.0950000  -1.4660000   2.5700000  -5.9920000  -0.3340000   3.6540000
  -6.3200000   2.1180000   3.3720000  -4.7000000   3.4160000   2.0040000
   1.1650000   1.8540000   1.4060000   0.2930000   3.3530000   1.5250000
   0.5800000   2.6710000  -0.0860000
