%VERSION  VERSION_STAMP = V0001.000  DATE = 07/11/26  14:43:27                  
%FLAG TITLE                                                                     
%FORMAT(20a4)                                                                   
MOL                                                                             
%FLAG POINTERS                                                                  
%FORMAT(10I8)                                                                   
      35      12      12      25      24      38      38      62       0       0
     177       1      25      38      62      23      38      19      18       0
       0       0       0       0       0       0       0       0      35       0
       0
%FLAG ATOM_NAME                                                                 
%FORMAT(20a4)                                                                   
C1  C2  C3  N1  C4  N2  C5  O1  C6  C7  O2  C8  C9  C10 C11 C12 C13 S1  O3  O4  
N3  C14 S2  H1  H2  H3  H4  H5  H6  H7  H8  H9  H10 H11 H12 
%FLAG CHARGE                                                                    
%FORMAT(5E16.8)                                                                 
  5.83113600E-02 -4.20388461E+00  6.72767316E+00 -1.25733870E+01  1.18135171E+01
 -9.88377552E+00  1.34899687E+01 -1.17952948E+01 -6.16278186E+00  1.04395557E+01
 -1.27392099E+01 -3.75379380E-01 -2.22312060E+00 -1.89511920E+00 -3.02490180E+00
 -6.37780500E-01 -5.87669175E+00  2.74464283E+01 -1.23237415E+01 -1.23237415E+01
 -1.13579596E+01  3.88317213E+00 -5.16237759E+00  5.59424610E-01  5.59424610E-01
  5.59424610E-01  4.20935130E-01  6.47802765E+00  2.82445650E+00  2.11378680E+00
  2.16845370E+00  2.56934430E+00  7.41647610E-01  7.41647610E-01  7.41647610E-01
%FLAG ATOMIC_NUMBER                                                             
%FORMAT(10I8)                                                                   
       6       6       6       7       6       7       6       8       6       6
       8       6       6       6       6       6       6      16       8       8
       7       6      16       1       1       1       1       1       1       1
       1       1       1       1       1
%FLAG MASS                                                                      
%FORMAT(5E16.8)                                                                 
  1.20100000E+01  1.20100000E+01  1.20100000E+01  1.40100000E+01  1.20100000E+01
  1.40100000E+01  1.20100000E+01  1.60000000E+01  1.20100000E+01  1.20100000E+01
  1.60000000E+01  1.20100000E+01  1.20100000E+01  1.20100000E+01  1.20100000E+01
  1.20100000E+01  1.20100000E+01  3.20600000E+01  1.60000000E+01  1.60000000E+01
  1.40100000E+01  1.20100000E+01  3.20600000E+01  1.00800000E+00  1.00800000E+00
  1.00800000E+00  1.00800000E+00  1.00800000E+00  1.00800000E+00  1.00800000E+00
  1.00800000E+00  1.00800000E+00  1.00800000E+00  1.00800000E+00  1.00800000E+00
%FLAG ATOM_TYPE_INDEX                                                           
%FORMAT(10I8)                                                                   
       1       2       2       3       2       4       2       5       2       2
       5       2       2       2       2       2       2       6       5       5
       7       1       6       8       8       8       9      10      11      11
      11      11      12      12      12
%FLAG NUMBER_EXCLUDED_ATOMS                                                     
%FORMAT(10I8)                                                                   
       9       9       8       6       7       7      10       4      14      10
       4      12       8       7       7       8       8       8       3       2
       4       3       5       2       1       1       1       1       1       1
       1       1       2       1       1
%FLAG NONBONDED_PARM_INDEX                                                      
%FORMAT(10I8)                                                                   
       1       2       4       7      11      16      22      29      37      46
      56      67       2       3       5       8      12      17      23      30
      38      47      57      68       4       5       6       9      13      18
      24      31      39      48      58      69       7       8       9      10
      14      19      25      32      40      49      59      70      11      12
      13      14      15      20      26      33      41      50      60      71
      16      17      18      19      20      21      27      34      42      51
      61      72      22      23      24      25      26      27      28      35
      43      52      62      73      29      30      31      32      33      34
      35      36      44      53      63      74      37      38      39      40
      41      42      43      44      45      54      64      75      46      47
      48      49      50      51      52      53      54      55      65      76
      56      57      58      59      60      61      62      63      64      65
      66      77      67      68      69      70      71      72      73      74
      75      76      77      78
%FLAG RESIDUE_LABEL                                                             
%FORMAT(20a4)                                                                   
MOL 
%FLAG RESIDUE_POINTER                                                           
%FORMAT(10I8)                                                                   
       1
%FLAG BOND_FORCE_CONSTANT                                                       
%FORMAT(5E16.8)                                                                 
  2.62600000E+02  3.75900000E+02  4.16100000E+02  2.32000000E+02  3.69100000E+02
  4.03900000E+02  4.50700000E+02  3.53800000E+02  3.30200000E+02  5.27300000E+02
  6.35200000E+02  4.60500000E+02  2.80400000E+02  3.41700000E+02  6.52600000E+02
  2.72700000E+02  3.78600000E+02  3.95700000E+02  2.09800000E+02  6.53200000E+02
  2.87200000E+02  2.61800000E+02  3.75900000E+02
%FLAG BOND_EQUIL_VALUE                                                          
%FORMAT(5E16.8)                                                                 
  1.50200000E+00  1.09700000E+00  1.37300000E+00  1.75600000E+00  1.36900000E+00
  1.08200000E+00  1.31700000E+00  1.38100000E+00  1.39900000E+00  1.01300000E+00
  1.22500000E+00  1.34600000E+00  1.48200000E+00  1.39000000E+00  1.21800000E+00
  1.49100000E+00  1.39800000E+00  1.08600000E+00  1.79100000E+00  1.46600000E+00
  1.71400000E+00  1.46400000E+00  1.09700000E+00
%FLAG ANGLE_FORCE_CONSTANT                                                      
%FORMAT(5E16.8)                                                                 
  6.68000000E+01  6.27000000E+01  4.77000000E+01  9.11000000E+01  4.78000000E+01
  7.80000000E+01  6.69000000E+01  7.39000000E+01  6.17000000E+01  1.10300000E+02
  8.33000000E+01  6.80000000E+01  4.83000000E+01  7.97000000E+01  1.15166000E+02
  8.67000000E+01  4.80000000E+01  6.76000000E+01  8.58000000E+01  9.20000000E+01
  8.63000000E+01  6.50000000E+01  6.53000000E+01  6.51000000E+01  8.53000000E+01
  6.64000000E+01  8.62000000E+01  6.88000000E+01  4.87000000E+01  6.34000000E+01
  9.43000000E+01  9.05000000E+01  6.35000000E+01  1.26400000E+02  1.23100000E+02
  6.12000000E+01  3.90000000E+01  3.88000000E+01
%FLAG ANGLE_EQUIL_VALUE                                                         
%FORMAT(5E16.8)                                                                 
  2.08479669E+00  2.12109955E+00  1.92841512E+00  1.94866095E+00  2.24239998E+00
  1.57498579E+00  1.94691562E+00  1.84114862E+00  2.11429276E+00  2.14675590E+00
  1.99857738E+00  2.03400758E+00  2.08148056E+00  2.14466150E+00  2.05006462E+00
  2.15844961E+00  2.05774407E+00  2.10172639E+00  2.03173865E+00  2.15321362E+00
  2.15024656E+00  2.07729177E+00  1.97902969E+00  2.09649040E+00  2.01341269E+00
  2.10015559E+00  2.13977458E+00  2.09474507E+00  2.09230160E+00  2.08427309E+00
  1.89106506E+00  1.84132315E+00  2.03016786E+00  2.11900515E+00  1.85406406E+00
  1.91619781E+00  1.87762601E+00  1.89298492E+00
%FLAG DIHEDRAL_FORCE_CONSTANT                                                   
%FORMAT(5E16.8)                                                                 
  4.00000000E+00  1.10000000E+00  4.75000000E+00  0.00000000E+00  1.65000000E+00
  6.50000000E-01  6.65000000E+00  2.17500000E+00  1.05000000E+00  9.50000000E-01
  1.12000000E+00  1.00000000E+00  1.00000000E-01  0.00000000E+00  3.62500000E+00
  5.22500000E-01  1.30000000E+00  1.10000000E+00  1.05000000E+01
%FLAG DIHEDRAL_PERIODICITY                                                      
%FORMAT(5E16.8)                                                                 
  2.00000000E+00  2.00000000E+00  2.00000000E+00  3.00000000E+00  2.00000000E+00
  2.00000000E+00  2.00000000E+00  2.00000000E+00  2.00000000E+00  2.00000000E+00
  3.00000000E+00  2.00000000E+00  2.00000000E+00  2.00000000E+00  2.00000000E+00
  2.00000000E+00  2.00000000E+00  2.00000000E+00  2.00000000E+00
%FLAG DIHEDRAL_PHASE                                                            
%FORMAT(5E16.8)                                                                 
  3.14159400E+00  3.14159400E+00  3.14159400E+00  0.00000000E+00  3.14159400E+00
  3.14159400E+00  3.14159400E+00  3.14159400E+00  3.14159400E+00  3.14159400E+00
  3.14159400E+00  3.14159400E+00  3.14159400E+00  0.00000000E+00  3.14159400E+00
  3.14159400E+00  3.14159400E+00  3.14159400E+00  3.14159400E+00
%FLAG SCEE_SCALE_FACTOR                                                         
%FORMAT(5E16.8)                                                                 
  1.20000000E+00  1.20000000E+00  1.20000000E+00  1.20000000E+00  1.20000000E+00
  1.20000000E+00  1.20000000E+00  1.20000000E+00  1.20000000E+00  1.20000000E+00
  1.20000000E+00  1.20000000E+00  1.20000000E+00  1.20000000E+00  1.20000000E+00
  1.20000000E+00  1.20000000E+00  0.00000000E+00  0.00000000E+00
%FLAG SCNB_SCALE_FACTOR                                                         
%FORMAT(5E16.8)                                                                 
  2.00000000E+00  2.00000000E+00  2.00000000E+00  2.00000000E+00  2.00000000E+00
  2.00000000E+00  2.00000000E+00  2.00000000E+00  2.00000000E+00  2.00000000E+00
  2.00000000E+00  2.00000000E+00  2.00000000E+00  2.00000000E+00  2.00000000E+00
  2.00000000E+00  2.00000000E+00  0.00000000E+00  0.00000000E+00
%FLAG SOLTY                                                                     
%FORMAT(5E16.8)                                                                 
  0.00000000E+00  0.00000000E+00  0.00000000E+00  0.00000000E+00  0.00000000E+00
  0.00000000E+00  0.00000000E+00  0.00000000E+00  0.00000000E+00  0.00000000E+00
  0.00000000E+00  0.00000000E+00  0.00000000E+00  0.00000000E+00  0.00000000E+00
  0.00000000E+00  0.00000000E+00  0.00000000E+00
%FLAG LENNARD_JONES_ACOEF                                                       
%FORMAT(5E16.8)                                                                 
  1.02073671E+06  8.43969952E+05  6.96551276E+05  9.31115275E+05  7.69642101E+05
  8.49322032E+05  8.48258258E+05  6.99381362E+05  7.73425391E+05  7.01825028E+05
  6.30925504E+05  5.17507491E+05  5.74782316E+05  5.17814271E+05  3.76435470E+05
  2.09089895E+06  1.73376823E+06  1.90820499E+06  1.74537186E+06  1.30884564E+06
  4.26366419E+06  9.93125065E+05  8.17329084E+05  9.05243612E+05  8.19347611E+05
  6.01376873E+05  2.04935397E+06  9.54790629E+05  1.00235148E+05  8.12662403E+04
  9.11435380E+04  8.07866982E+04  5.68021765E+04  2.11783234E+05  9.27277603E+04
  7.94617769E+03  7.75673747E+04  6.27751680E+04  7.05112106E+04  6.23418310E+04
  4.36069364E+04  1.64354276E+05  7.14263282E+04  6.02863188E+03  4.56536476E+03
  2.23577481E+03  1.71458823E+03  2.01475241E+03  1.65195713E+03  9.87857350E+02
  5.15374979E+03  1.79157166E+03  9.47421632E+01  6.76796831E+01  1.34728399E-01
  9.27554496E+04  7.52549148E+04  8.43518904E+04  7.48403283E+04  5.27277400E+04
  1.95762765E+05  8.59636060E+04  7.41026906E+03  5.62610481E+03  9.04434904E+01
  6.90855956E+03  6.97998263E+04  5.63013422E+04  6.34160397E+04  5.58085097E+04
  3.86646725E+04  1.48672098E+05  6.37258620E+04  5.22955465E+03  3.94664935E+03
  5.24570081E+01  4.88692384E+03  3.39005767E+03
%FLAG LENNARD_JONES_BCOEF                                                       
%FORMAT(5E16.8)                                                                 
  6.63431737E+02  5.90251928E+02  5.24668528E+02  6.12468585E+02  5.44830041E+02
  5.65406768E+02  6.17825399E+02  5.48900066E+02  5.70234696E+02  5.74088001E+02
  5.62969425E+02  4.98871431E+02  5.19385932E+02  5.21008860E+02  4.69350655E+02
  1.20800124E+03  1.07629402E+03  1.11546536E+03  1.12747567E+03  1.03157656E+03
  2.19459223E+03  7.77671659E+02  6.90283231E+02  7.17661669E+02  7.21590374E+02
  6.53166727E+02  1.42122969E+03  9.06156687E+02  1.37787728E+02  1.21392023E+02
  1.27000718E+02  1.26366740E+02  1.11953944E+02  2.54804909E+02  1.57492664E+02
  2.57122925E+01  1.13692208E+02  1.00073628E+02  1.04776275E+02  1.04122183E+02
  9.20079458E+01  2.10544132E+02  1.29650812E+02  2.10068861E+01  1.71467049E+01
  1.71355763E+01  1.46824710E+01  1.57231024E+01  1.50468782E+01  1.22938581E+01
  3.30984635E+01  1.82287422E+01  2.33785449E+00  1.85338491E+00  7.34107347E-02
  1.24325688E+02  1.09570372E+02  1.14599119E+02  1.14083104E+02  1.01173582E+02
  2.29782888E+02  1.42233990E+02  2.32899892E+01  1.90347353E+01  2.14252117E+00
  2.10929191E+01  1.14981426E+02  1.01040256E+02  1.05935811E+02  1.05029928E+02
  9.23664132E+01  2.13489607E+02  1.30560951E+02  2.08590256E+01  1.69967767E+01
  1.73959275E+00  1.89134207E+01  1.67944276E+01
%FLAG BONDS_INC_HYDROGEN                                                        
%FORMAT(10I8)                                                                   
       0      69       2       0      72       2       0      75       2       6
      78       6      15      81      10      36      84      18      39      87
      18      42      90      18      45      93      18      63      96      23
      63      99      23      63     102      23
%FLAG BONDS_WITHOUT_HYDROGEN                                                    
%FORMAT(10I8)                                                                   
       0       3       1       3       6       3       3      66       4       6
       9       5       9      12       7      12      15       8      12      66
       4      15      18       9      18      21      11      18      24      12
      24      27      13      24      60      14      27      30      15      27
      33      16      33      36      17      33      48      17      36      39
      17      39      42      17      42      45      17      45      48      17
      48      51      19      51      54      20      51      57      20      51
      60      21      60      63      22
%FLAG ANGLES_INC_HYDROGEN                                                       
%FORMAT(10I8)                                                                   
       3       0      69       3       3       0      72       3       3       0
      75       3       3       6      78       5       9       6      78       9
      12      15      81      13      18      15      81      17      33      36
      84      29      36      39      87      29      39      36      84      29
      39      42      90      29      42      39      87      29      42      45
      93      29      45      42      90      29      48      45      93      29
      60      63      96      36      60      63      99      36      60      63
     102      36      69       0      72      37      69       0      75      37
      72       0      75      37      96      63      99      38      96      63
     102      38      99      63     102      38
%FLAG ANGLES_WITHOUT_HYDROGEN                                                   
%FORMAT(10I8)                                                                   
       0       3       6       1       0       3      66       2       3       6
       9       4       3      66      12       6       6       3      66       7
       6       9      12       8       9      12      15      10       9      12
      66      11      12      15      18      12      15      12      66      14
      15      18      21      15      15      18      24      16      18      24
      27      18      18      24      60      19      21      18      24      20
      24      27      30      21      24      27      33      22      24      60
      51      23      24      60      63      24      27      24      60      25
      27      33      36      26      27      33      48      26      30      27
      33      27      33      36      39      28      33      48      45      28
      33      48      51      30      36      33      48      28      36      39
      42      28      39      42      45      28      42      45      48      28
      45      48      51      30      48      51      54      31      48      51
      57      31      48      51      60      32      51      60      63      33
      54      51      57      34      54      51      60      35      57      51
      60      35
%FLAG DIHEDRALS_INC_HYDROGEN                                                    
%FORMAT(10I8)                                                                   
       0       3       6      78       1      69       0       3       6       4
      72       0       3       6       4      75       0       3       6       4
       9      12      15      81       5      12       9       6      78       3
      21      18      15      81       6      24      18      15      81       6
      24      60      63      96      14      24      60      63      99      14
      24      60      63     102      14      27      33      36      84      15
      33      36      39      87      15      33      48      45      93      15
      36      39      42      90      15      39      42      45      93      15
      42      39      36      84      15      45      42      39      87      15
      48      45      42      90      15      48      33      36      84      15
      51      48      45      93      15      51      60      63      96      14
      51      60      63      99      14      51      60      63     102      14
      66      12      15      81       5      69       0       3      66       4
      72       0       3      66       4      75       0       3      66       4
      66       3       6      78       1      84      36      39      87      15
      87      39      42      90      15      90      42      45      93      15
       3      78      -6      -9      18      18      12     -15     -81      18
      33      39     -36     -84      18      36      42     -39     -87      18
      39      45     -42     -90      18      42      48     -45     -93      18
%FLAG DIHEDRALS_WITHOUT_HYDROGEN                                                
%FORMAT(10I8)                                                                   
       0       3       6       9       1       0       3      66      12       2
       3       6      -9      12       3       3      66     -12       9       2
       3      66      12      15       2       6       3     -66      12       2
       6       9      12      15       3       6       9     -12      66       3
       9       6      -3      66       1       9      12      15      18       5
      12      15      18      21       6      12      15      18      24       6
      15      18      24      27       7      15      18      24      60       7
      18      15      12      66       5      18      24      27      30       8
      18      24      27      33       8      18      24      60      51       9
      18      24      60      63      10      18      24     -60      63      11
      21      18      24      27       7      21      18      24      60       7
      24      27      33      36      12      24      27      33      48      12
      24      60     -51      48      13      24      60      51      54      13
      24      60      51      57      13      27      24      60      51       9
      27      24      60      63      10      27      24     -60      63      11
      27      33      36      39      15      27      33      48      45      15
      27      33     -48      51      15      30      27      24      60       8
      30      27      33      36      16      30      27      33      48      16
      33      27      24      60       8      33      36      39      42      15
      33      48     -45      42      15      33      48      51      54      17
      33      48      51      57      17      33      48     -51      60      17
      36      33      48      45      15      36      33      48      51      15
      36      39     -42      45      15      39      36      33      48      15
      39      42     -45      48      15      42      45      48      51      15
      45      48      51      54      17      45      48      51      57      17
      45      48      51      60      17      48      51      60      63      13
      54      51      60      63      13      57      51      60      63      13
       0       6      -3     -66      18       9      15     -12     -66      18
      24      15     -18     -21      18      27      18     -24     -60      18
      33      24     -27     -30      19      27      36     -33     -48      18
      33      45     -48     -51      18      63      24     -60     -51      18
%FLAG EXCLUDED_ATOMS_LIST                                                       
%FORMAT(10I8)                                                                   
       2       3       4       5      23      24      25      26      27       3
       4       5       6      23      24      25      26      27       4       5
       6      23      24      25      26      27       5       6       7      23
      27      28       6       7       8       9      23      27      28       7
       8       9      10      21      23      28       8       9      10      11
      12      18      21      22      23      28       9      10      21      28
      10      11      12      13      17      18      19      20      21      22
      28      33      34      35      11      12      13      14      16      17
      18      21      22      29      12      13      17      21      13      14
      15      16      17      18      19      20      21      29      30      32
      14      15      16      17      18      29      30      31      15      16
      17      29      30      31      32      16      17      18      29      30
      31      32      17      18      19      20      21      30      31      32
      18      19      20      21      22      29      31      32      19      20
      21      22      32      33      34      35      20      21      22      21
      22      22      33      34      35      33      34      35      24      25
      26      27      28      25      26      26       0       0       0      30
      31      32       0      34      35      35       0
%FLAG HBOND_ACOEF                                                               
%FORMAT(5E16.8)                                                                 

%FLAG HBOND_BCOEF                                                               
%FORMAT(5E16.8)                                                                 

%FLAG HBCUT                                                                     
%FORMAT(5E16.8)                                                                 

%FLAG AMBER_ATOM_TYPE                                                           
%FORMAT(20a4)                                                                   
c3  cc  cd  nd  cc  ns  c2  o   ce  c   o   ca  ca  ca  ca  ca  ca  sy  o   o   
nh  c3  ss  hc  hc  hc  h4  hn  ha  ha  ha  ha  h1  h1  h1  
%FLAG TREE_CHAIN_CLASSIFICATION                                                 
%FORMAT(20a4)                                                                   
BLA BLA BLA BLA BLA BLA BLA BLA BLA BLA BLA BLA BLA BLA BLA BLA BLA BLA BLA BLA 
BLA BLA BLA BLA BLA BLA BLA BLA BLA BLA BLA BLA BLA BLA BLA 
%FLAG JOIN_ARRAY                                                                
%FORMAT(10I8)                                                                   
       0       0       0       0       0       0       0       0       0       0
       0       0       0       0       0       0       0       0       0       0
       0       0       0       0       0       0       0       0       0       0
       0       0       0       0       0
%FLAG IROTAT                                                                    
%FORMAT(10I8)                                                                   
       0       0       0       0       0       0       0       0       0       0
       0       0       0       0       0       0       0       0       0       0
       0       0       0       0       0       0       0       0       0       0
       0       0       0       0       0
%FLAG RADIUS_SET                                                                
%FORMAT(1a80)                                                                   
modified Bondi radii (mbondi)                                                   
%FLAG RADII                                                                     
%FORMAT(5E16.8)                                                                 
  1.70000000E+00  1.70000000E+00  1.70000000E+00  1.55000000E+00  1.70000000E+00
  1.55000000E+00  1.70000000E+00  1.50000000E+00  1.70000000E+00  1.70000000E+00
  1.50000000E+00  1.70000000E+00  1.70000000E+00  1.70000000E+00  1.70000000E+00
  1.70000000E+00  1.70000000E+00  1.80000000E+00  1.50000000E+00  1.50000000E+00
  1.55000000E+00  1.70000000E+00  1.80000000E+00  1.30000000E+00  1.30000000E+00
  1.30000000E+00  1.30000000E+00  1.30000000E+00  1.30000000E+00  1.30000000E+00
  1.30000000E+00  1.30000000E+00  1.30000000E+00  1.30000000E+00  1.30000000E+00
%FLAG SCREEN                                                                    
%FORMAT(5E16.8)                                                                 
  7.20000000E-01  7.20000000E-01  7.20000000E-01  7.90000000E-01  7.20000000E-01
  7.90000000E-01  7.20000000E-01  8.50000000E-01  7.20000000E-01  7.20000000E-01
  8.50000000E-01  7.20000000E-01  7.20000000E-01  7.20000000E-01  7.20000000E-01
  7.20000000E-01  7.20000000E-01  9.60000000E-01  8.50000000E-01  8.50000000E-01
  7.90000000E-01  7.20000000E-01  9.60000000E-01  8.50000000E-01  8.50000000E-01
  8.50000000E-01  8.50000000E-01  8.50000000E-01  8.50000000E-01  8.50000000E-01
  8.50000000E-01  8.50000000E-01  8.50000000E-01  8.50000000E-01  8.50000000E-01
%FLAG IPOL                                                                      
%FORMAT(1I8)                                                                    
       0
