%VERSION  VERSION_STAMP = V0001.000  DATE = 07/11/26  14:04:47                  
%FLAG TITLE                                                                     
%FORMAT(20a4)                                                                   
MOL                                                                             
%FLAG POINTERS                                                                  
%FORMAT(10I8)                                                                   
     128       9      72      61     161      99     328     361       0       0
     822       1      61      99     361      10      20      32       9       0
       0       0       0       0       0       0       0       0     128       0
       0
%FLAG ATOM_NAME                                                                 
%FORMAT(20a4)                                                                   
C1  C2  C3  C4  C5  C6  C7  C8  O1  C9  O2  C10 C11 O3  C12 O4  C13 O5  C14 O6  
C15 C16 C17 C18 C19 C20 C21 O7  C22 C23 C24 C25 C26 C27 C28 O8  C29 C30 C31 C32 
C33 O9  C34 O10 C35 C36 O11 C37 O12 C38 O13 C39 O14 C40 C41 C42 H1  H2  H3  H4  
H5  H6  H7  H8  H9  H10 H11 H12 H13 H14 H15 H16 H17 H18 H19 H20 H21 H22 H23 H24 
H25 H26 H27 H28 H29 H30 H31 H32 H33 H34 H35 H36 H37 H38 H39 H40 H41 H42 H43 H44 
H45 H46 H47 H48 H49 H50 H51 H52 H53 H54 H55 H56 H57 H58 H59 H60 H61 H62 H63 H64 
H65 H66 H67 H68 H69 H70 H71 H72 
%FLAG CHARGE                                                                    
%FORMAT(5E16.8)                                                                 
 -1.09151577E+00 -2.21218722E+00 -1.09151577E+00 -3.24721386E+00 -1.04231556E+00
 -1.59262902E+00  3.25814724E+00 -2.22494283E+00 -8.22919068E+00  5.66531307E+00
 -8.22919068E+00  1.40493933E+00  2.28507642E+00 -1.08932909E+01  1.42316163E+00
 -1.10208470E+01  2.35249893E+00 -1.08932909E+01  1.96983063E+00 -1.06381787E+01
 -9.60315210E-01 -1.33751682E+00 -1.50151752E+00 -7.83558900E-01 -1.66005153E+00
 -1.01498211E+00  2.69872263E+00 -1.10390693E+01 -1.97529732E+00 -9.23870610E-01
 -4.73779800E-01 -1.62360693E+00 -1.30107222E+00 -2.06640882E+00  2.62583343E+00
 -1.09115132E+01 -4.55557500E-01 -1.47782853E+00 -1.47782853E+00 -7.78092210E-01
  2.80805643E+00 -7.53674328E+00  5.55597927E+00 -8.08341228E+00  1.89694143E+00
  2.61307782E+00 -1.09661801E+01  2.24316513E+00 -1.08568463E+01  1.98805293E+00
 -1.10572916E+01  1.55071773E+00 -1.10572916E+01 -1.92063042E+00 -2.55112200E-01
 -1.86049683E+00  7.53801884E-01  7.53801884E-01  7.53801884E-01  7.53801884E-01
  7.53801884E-01  7.53801884E-01  2.15023140E+00  1.05142671E+00  1.05142671E+00
  8.96537160E-01  8.96537160E-01  1.02105014E+00  1.02105014E+00  1.02105014E+00
  1.85320791E+00  1.32476121E+00  9.96759810E-01  9.96759810E-01  7.48936530E+00
  1.56165111E+00  7.54403220E+00  1.08787131E+00  7.65336600E+00  2.16298701E+00
  7.36180920E+00  1.03320441E+00  8.60092560E-01  8.60092560E-01  1.06053786E+00
  1.06053786E+00  6.50536110E-01  6.50536110E-01  6.50536110E-01  1.21542741E+00
  6.86980710E-01  7.23425310E+00  8.69203710E-01  8.69203710E-01  8.50981410E-01
  7.29493336E-01  7.29493336E-01  7.29493336E-01  7.68981060E-01  7.68981060E-01
  8.78314860E-01  8.78314860E-01  5.59424610E-01  7.25247540E+00  7.14314160E-01
  7.14314160E-01  7.14314160E-01  7.14314160E-01  7.14314160E-01  7.14314160E-01
  1.03320441E+00  8.50981410E-01  1.05142671E+00  1.19720511E+00  1.13342706E+00
  1.13342706E+00  7.52580990E+00  1.17898281E+00  7.74447750E+00  1.16076051E+00
  7.78092210E+00  1.41587271E+00  7.74447750E+00  1.09698246E+00  1.09698246E+00
  8.14536810E-01  8.14536810E-01  8.14536810E-01
%FLAG ATOMIC_NUMBER                                                             
%FORMAT(10I8)                                                                   
       6       6       6       6       6       6       6       6       8       6
       8       6       6       8       6       8       6       8       6       8
       6       6       6       6       6       6       6       8       6       6
       6       6       6       6       6       8       6       6       6       6
       6       8       6       8       6       6       8       6       8       6
       8       6       8       6       6       6       1       1       1       1
       1       1       1       1       1       1       1       1       1       1
       1       1       1       1       1       1       1       1       1       1
       1       1       1       1       1       1       1       1       1       1
       1       1       1       1       1       1       1       1       1       1
       1       1       1       1       1       1       1       1       1       1
       1       1       1       1       1       1       1       1       1       1
       1       1       1       1       1       1       1       1
%FLAG MASS                                                                      
%FORMAT(5E16.8)                                                                 
  1.20100000E+01  1.20100000E+01  1.20100000E+01  1.20100000E+01  1.20100000E+01
  1.20100000E+01  1.20100000E+01  1.20100000E+01  1.60000000E+01  1.20100000E+01
  1.60000000E+01  1.20100000E+01  1.20100000E+01  1.60000000E+01  1.20100000E+01
  1.60000000E+01  1.20100000E+01  1.60000000E+01  1.20100000E+01  1.60000000E+01
  1.20100000E+01  1.20100000E+01  1.20100000E+01  1.20100000E+01  1.20100000E+01
  1.20100000E+01  1.20100000E+01  1.60000000E+01  1.20100000E+01  1.20100000E+01
  1.20100000E+01  1.20100000E+01  1.20100000E+01  1.20100000E+01  1.20100000E+01
  1.60000000E+01  1.20100000E+01  1.20100000E+01  1.20100000E+01  1.20100000E+01
  1.20100000E+01  1.60000000E+01  1.20100000E+01  1.60000000E+01  1.20100000E+01
  1.20100000E+01  1.60000000E+01  1.20100000E+01  1.60000000E+01  1.20100000E+01
  1.60000000E+01  1.20100000E+01  1.60000000E+01  1.20100000E+01  1.20100000E+01
  1.20100000E+01  1.00800000E+00  1.00800000E+00  1.00800000E+00  1.00800000E+00
  1.00800000E+00  1.00800000E+00  1.00800000E+00  1.00800000E+00  1.00800000E+00
  1.00800000E+00  1.00800000E+00  1.00800000E+00  1.00800000E+00  1.00800000E+00
  1.00800000E+00  1.00800000E+00  1.00800000E+00  1.00800000E+00  1.00800000E+00
  1.00800000E+00  1.00800000E+00  1.00800000E+00  1.00800000E+00  1.00800000E+00
  1.00800000E+00  1.00800000E+00  1.00800000E+00  1.00800000E+00  1.00800000E+00
  1.00800000E+00  1.00800000E+00  1.00800000E+00  1.00800000E+00  1.00800000E+00
  1.00800000E+00  1.00800000E+00  1.00800000E+00  1.00800000E+00  1.00800000E+00
  1.00800000E+00  1.00800000E+00  1.00800000E+00  1.00800000E+00  1.00800000E+00
  1.00800000E+00  1.00800000E+00  1.00800000E+00  1.00800000E+00  1.00800000E+00
  1.00800000E+00  1.00800000E+00  1.00800000E+00  1.00800000E+00  1.00800000E+00
  1.00800000E+00  1.00800000E+00  1.00800000E+00  1.00800000E+00  1.00800000E+00
  1.00800000E+00  1.00800000E+00  1.00800000E+00  1.00800000E+00  1.00800000E+00
  1.00800000E+00  1.00800000E+00  1.00800000E+00  1.00800000E+00  1.00800000E+00
  1.00800000E+00  1.00800000E+00  1.00800000E+00
%FLAG ATOM_TYPE_INDEX                                                           
%FORMAT(10I8)                                                                   
       1       2       1       2       1       1       1       1       3       1
       3       1       1       4       1       4       1       4       1       4
       1       1       1       1       1       1       1       4       1       1
       1       1       1       1       1       4       1       1       1       1
       1       3       1       3       1       1       4       1       4       1
       4       1       4       1       1       1       5       5       5       5
       5       5       6       5       5       5       5       5       5       5
       7       8       8       8       9       8       9       8       9       8
       9       5       5       5       5       5       5       5       5       5
       8       9       5       5       5       5       5       5       5       5
       5       5       8       9       5       5       5       5       5       5
       5       8       7       8       8       8       9       8       9       8
       9       8       9       5       5       5       5       5
%FLAG NUMBER_EXCLUDED_ATOMS                                                     
%FORMAT(10I8)                                                                   
      11      13       9      14      10      16      23      11      17      14
      14      15       9       5      13       7      11       6       7       4
      21      12      17      27      12      20      12       7      14      25
      25      13      17      12      19       8      18      11      10      22
      12      14      15      14      15       9       5      13       7      11
       6       7       4      10      16       6       2       1       1       2
       1       1       2       3       2       1       1       2       1       1
       1       3       2       1       1       2       1       2       1       1
       1       3       3       2       1       1       2       1       1       1
       3       1       2       1       1       2       1       1       3       2
       2       1       1       1       2       1       1       2       1       1
       1       2       1       3       2       1       1       2       1       2
       1       1       1       1       1       2       1       1
%FLAG NONBONDED_PARM_INDEX                                                      
%FORMAT(10I8)                                                                   
       1       2       4       7      11      16      22      29      37       2
       3       5       8      12      17      23      30      38       4       5
       6       9      13      18      24      31      39       7       8       9
      10      14      19      25      32      40      11      12      13      14
      15      20      26      33      41      16      17      18      19      20
      21      27      34      42      22      23      24      25      26      27
      28      35      43      29      30      31      32      33      34      35
      36      44      37      38      39      40      41      42      43      44
      45
%FLAG RESIDUE_LABEL                                                             
%FORMAT(20a4)                                                                   
MOL 
%FLAG RESIDUE_POINTER                                                           
%FORMAT(10I8)                                                                   
       1
%FLAG BOND_FORCE_CONSTANT                                                       
%FORMAT(5E16.8)                                                                 
  2.55600000E+02  3.75900000E+02  4.81800000E+02  3.92200000E+02  2.32500000E+02
  2.84800000E+02  3.77300000E+02  3.75900000E+02  2.93400000E+02  5.63500000E+02
%FLAG BOND_EQUIL_VALUE                                                          
%FORMAT(5E16.8)                                                                 
  1.51000000E+00  1.09700000E+00  1.33400000E+00  1.08800000E+00  1.53800000E+00
  1.43200000E+00  1.09600000E+00  1.09700000E+00  1.42300000E+00  9.73000000E-01
%FLAG ANGLE_FORCE_CONSTANT                                                      
%FORMAT(5E16.8)                                                                 
  6.49000000E+01  6.61000000E+01  4.75000000E+01  5.04000000E+01  6.55000000E+01
  4.64000000E+01  6.49000000E+01  4.68000000E+01  8.53000000E+01  6.63000000E+01
  1.10900000E+02  6.24000000E+01  8.46000000E+01  4.69000000E+01  6.24000000E+01
  4.90000000E+01  6.25000000E+01  4.67000000E+01  3.90000000E+01  3.88000000E+01
%FLAG ANGLE_EQUIL_VALUE                                                         
%FORMAT(5E16.8)                                                                 
  2.01847415E+00  2.15775148E+00  1.92614619E+00  2.10190092E+00  1.94709015E+00
  2.01899774E+00  1.94621748E+00  1.91637234E+00  1.88443280E+00  1.96314718E+00
  1.89001786E+00  1.91253261E+00  1.92317913E+00  1.91218355E+00  1.91602327E+00
  1.87204096E+00  1.92440086E+00  1.92370273E+00  1.87762601E+00  1.89298492E+00
%FLAG DIHEDRAL_FORCE_CONSTANT                                                   
%FORMAT(5E16.8)                                                                 
  3.10000000E-01  4.00000000E-01  5.29000000E+00  6.65000000E+00  0.00000000E+00
  1.47000000E+00  3.60000000E-01  1.55555556E-01  1.10000000E-01  2.90000000E-01
  1.30000000E-01  8.00000000E-02  0.00000000E+00  1.60000000E-01  2.40000000E-01
  9.70000000E-01  1.24000000E+00  0.00000000E+00  3.83333333E-01  2.50000000E-01
  0.00000000E+00  2.00000000E-02  1.01000000E+00  3.37000000E-01  2.10000000E-01
  1.13000000E+00  9.00000000E-01  5.10000000E-01  1.80000000E-01  1.20000000E-01
  1.13000000E-01  1.10000000E+00
%FLAG DIHEDRAL_PERIODICITY                                                      
%FORMAT(5E16.8)                                                                 
  2.00000000E+00  1.00000000E+00  2.00000000E+00  2.00000000E+00  2.00000000E+00
  1.00000000E+00  3.00000000E+00  3.00000000E+00  1.00000000E+00  2.00000000E+00
  3.00000000E+00  3.00000000E+00  1.00000000E+00  2.00000000E+00  3.00000000E+00
  1.00000000E+00  2.00000000E+00  3.00000000E+00  3.00000000E+00  1.00000000E+00
  3.00000000E+00  1.00000000E+00  3.00000000E+00  3.00000000E+00  3.00000000E+00
  2.00000000E+00  3.00000000E+00  1.00000000E+00  3.00000000E+00  3.00000000E+00
  3.00000000E+00  2.00000000E+00
%FLAG DIHEDRAL_PHASE                                                            
%FORMAT(5E16.8)                                                                 
  0.00000000E+00  3.14159400E+00  3.14159400E+00  3.14159400E+00  0.00000000E+00
  0.00000000E+00  3.14159400E+00  0.00000000E+00  0.00000000E+00  3.14159400E+00
  0.00000000E+00  0.00000000E+00  0.00000000E+00  0.00000000E+00  0.00000000E+00
  3.14159400E+00  0.00000000E+00  3.14159400E+00  0.00000000E+00  0.00000000E+00
  0.00000000E+00  3.14159400E+00  0.00000000E+00  0.00000000E+00  0.00000000E+00
  0.00000000E+00  0.00000000E+00  0.00000000E+00  0.00000000E+00  0.00000000E+00
  0.00000000E+00  3.14159400E+00
%FLAG SCEE_SCALE_FACTOR                                                         
%FORMAT(5E16.8)                                                                 
  1.20000000E+00  1.20000000E+00  1.20000000E+00  1.20000000E+00  1.20000000E+00
  1.20000000E+00  1.20000000E+00  1.20000000E+00  1.20000000E+00  1.20000000E+00
  1.20000000E+00  1.20000000E+00  1.20000000E+00  1.20000000E+00  1.20000000E+00
  1.20000000E+00  1.20000000E+00  1.20000000E+00  1.20000000E+00  1.20000000E+00
  1.20000000E+00  1.20000000E+00  1.20000000E+00  1.20000000E+00  1.20000000E+00
  1.20000000E+00  1.20000000E+00  1.20000000E+00  1.20000000E+00  1.20000000E+00
  1.20000000E+00  0.00000000E+00
%FLAG SCNB_SCALE_FACTOR                                                         
%FORMAT(5E16.8)                                                                 
  2.00000000E+00  2.00000000E+00  2.00000000E+00  2.00000000E+00  2.00000000E+00
  2.00000000E+00  2.00000000E+00  2.00000000E+00  2.00000000E+00  2.00000000E+00
  2.00000000E+00  2.00000000E+00  2.00000000E+00  2.00000000E+00  2.00000000E+00
  2.00000000E+00  2.00000000E+00  2.00000000E+00  2.00000000E+00  2.00000000E+00
  2.00000000E+00  2.00000000E+00  2.00000000E+00  2.00000000E+00  2.00000000E+00
  2.00000000E+00  2.00000000E+00  2.00000000E+00  2.00000000E+00  2.00000000E+00
  2.00000000E+00  0.00000000E+00
%FLAG SOLTY                                                                     
%FORMAT(5E16.8)                                                                 
  0.00000000E+00  0.00000000E+00  0.00000000E+00  0.00000000E+00  0.00000000E+00
  0.00000000E+00  0.00000000E+00  0.00000000E+00  0.00000000E+00
%FLAG LENNARD_JONES_ACOEF                                                       
%FORMAT(5E16.8)                                                                 
  1.02073671E+06  8.43969952E+05  6.96551276E+05  5.42502534E+05  4.46121722E+05
  2.83662575E+05  7.18991463E+05  5.92438683E+05  3.78207390E+05  5.03152404E+05
  1.00235148E+05  8.12662403E+04  5.02224902E+04  6.80216136E+04  7.94617769E+03
  9.27554496E+04  7.52549148E+04  4.65732396E+04  6.30298721E+04  7.41026906E+03
  6.90855956E+03  4.80619274E+04  3.85565555E+04  2.33261683E+04  3.19666529E+04
  3.39005767E+03  3.17496391E+03  1.35510742E+03  6.97998263E+04  5.63013422E+04
  3.44374471E+04  4.69084694E+04  5.22955465E+03  4.88692384E+03  2.16218723E+03
  3.39005767E+03  3.03553352E+02  2.25372434E+02  1.16469347E+02  1.74176419E+02
  8.80612241E+00  8.53132435E+00  2.07292270E+00  4.36660257E+00  1.10360882E-05
%FLAG LENNARD_JONES_BCOEF                                                       
%FORMAT(5E16.8)                                                                 
  6.63431737E+02  5.90251928E+02  5.24668528E+02  4.38146883E+02  3.88758656E+02
  2.87011518E+02  5.36620538E+02  4.76608379E+02  3.52573684E+02  4.32634597E+02
  1.37787728E+02  1.21392023E+02  8.83545880E+01  1.09393126E+02  2.57122925E+01
  1.24325688E+02  1.09570372E+02  7.98066064E+01  9.87712192E+01  2.32899892E+01
  2.10929191E+01  9.54115851E+01  8.36149973E+01  6.02145835E+01  7.49920368E+01
  1.67944276E+01  1.52447987E+01  1.06181419E+01  1.14981426E+02  1.01040256E+02
  7.31636661E+01  9.08431526E+01  2.08590256E+01  1.89134207E+01  1.34124560E+01
  1.67944276E+01  5.22789272E+00  4.40751799E+00  2.93355636E+00  3.81654050E+00
  5.90150328E-01  5.44840215E-01  2.86326700E-01  4.15568027E-01  4.55498033E-04
%FLAG BONDS_INC_HYDROGEN                                                        
%FORMAT(10I8)                                                                   
       0     168       2       0     171       2       0     174       2       6
     177       2       6     180       2       6     183       2       9     186
       4      12     189       2      12     192       2      15     195       2
      15     198       2      21     201       2      21     204       2      21
     207       2      27     210       7      33     213       8      36     216
       8      36     219       8      39     222      10      42     225       8
      45     228      10      48     231       8      51     234      10      54
     237       8      57     240      10      60     243       2      63     246
       2      63     249       2      66     252       2      66     255       2
      72     258       2      72     261       2      72     264       2      75
     267       2      78     270       8      81     273      10      84     276
       2      84     279       2      87     282       2      93     285       2
      93     288       2      93     291       2      96     294       2      96
     297       2      99     300       2      99     303       2     102     306
       8     105     309      10     111     312       2     111     315       2
     111     318       2     114     321       2     114     324       2     114
     327       2     117     330       2     120     333       8     126     336
       7     132     339       8     135     342       8     135     345       8
     138     348      10     141     351       8     144     354      10     147
     357       8     150     360      10     153     363       8     156     366
      10     159     369       2     159     372       2     165     375       2
     165     378       2     165     381       2
%FLAG BONDS_WITHOUT_HYDROGEN                                                    
%FORMAT(10I8)                                                                   
       0       3       1       3       6       1       3       9       3       9
      12       1      12      15       5      15      18       5      18      21
       5      18      24       6      18      60       5      24      27       6
      27      30       6      27      54       5      30      33       6      33
      36       5      33      42       5      36      39       9      42      45
       9      42      48       5      48      51       9      48      54       5
      54      57       9      60      63       5      60      75       5      63
      66       5      66      69       5      69      72       5      69      75
       5      69     162       5      75      78       5      78      81       9
      78      84       5      84      87       5      87      90       5      87
     162       5      90      93       5      90      96       5      90     117
       5      96      99       5      99     102       5     102     105       9
     102     108       5     108     111       5     108     114       5     108
     117       5     117     120       5     120     123       6     120     159
       5     123     126       6     126     129       6     126     153       5
     129     132       6     132     135       5     132     141       5     135
     138       9     141     144       9     141     147       5     147     150
       9     147     153       5     153     156       9     159     162       5
     162     165       5
%FLAG ANGLES_INC_HYDROGEN                                                       
%FORMAT(10I8)                                                                   
       3       0     168       3       3       0     171       3       3       0
     174       3       3       6     177       3       3       6     180       3
       3       6     183       3       3       9     186       4       9      12
     189       3       9      12     192       3      12       9     186       6
      12      15     195       8      12      15     198       8      15      12
     189       8      15      12     192       8      18      15     195       8
      18      15     198       8      18      21     201       8      18      21
     204       8      18      21     207       8      18      60     243       8
      24      27     210      12      27      54     237      14      30      27
     210      12      30      33     213      15      33      36     216      14
      33      36     219      14      33      42     225      14      36      33
     213      14      36      39     222      16      39      36     216      17
      39      36     219      17      42      33     213      14      42      45
     228      16      42      48     231      14      45      42     225      17
      48      42     225      14      48      51     234      16      48      54
     237      14      51      48     231      17      54      48     231      14
      54      57     240      16      54      27     210      18      57      54
     237      17      60      63     246       8      60      63     249       8
      60      75     267       8      63      60     243       8      63      66
     252       8      63      66     255       8      66      63     246       8
      66      63     249       8      69      66     252       8      69      66
     255       8      69      72     258       8      69      72     261       8
      69      72     264       8      69      75     267       8      75      78
     270      14      75      60     243       8      78      75     267       8
      78      81     273      16      78      84     276       8      78      84
     279       8      81      78     270      17      84      78     270      14
      84      87     282       8      87      84     276       8      87      84
     279       8      90      87     282       8      90      93     285       8
      90      93     288       8      90      93     291       8      90      96
     294       8      90      96     297       8      90     117     330       8
      96      99     300       8      96      99     303       8      99      96
     294       8      99      96     297       8      99     102     306      14
     102      99     300       8     102      99     303       8     102     105
     309      16     105     102     306      17     108     102     306      14
     108     111     312       8     108     111     315       8     108     111
     318       8     108     114     321       8     108     114     324       8
     108     114     327       8     108     117     330       8     117     120
     333      14     120     117     330       8     120     159     369       8
     120     159     372       8     123     120     333      15     123     126
     336      12     126     153     363      14     129     126     336      12
     129     132     339      15     132     135     342      14     132     135
     345      14     132     141     351      14     135     132     339      14
     135     138     348      16     138     135     342      17     138     135
     345      17     141     132     339      14     141     144     354      16
     141     147     357      14     144     141     351      17     147     141
     351      14     147     150     360      16     147     153     363      14
     150     147     357      17     153     147     357      14     153     156
     366      16     153     126     336      18     156     153     363      17
     159     120     333      14     162     159     369       8     162     159
     372       8     162     165     375       8     162     165     378       8
     162     165     381       8     162      87     282       8     168       0
     171      19     168       0     174      19     171       0     174      19
     177       6     180      19     177       6     183      19     180       6
     183      19     189      12     192      19     195      15     198      19
     201      21     204      19     201      21     207      19     204      21
     207      19     216      36     219      20     246      63     249      19
     252      66     255      19     258      72     261      19     258      72
     264      19     261      72     264      19     276      84     279      19
     285      93     288      19     285      93     291      19     288      93
     291      19     294      96     297      19     300      99     303      19
     312     111     315      19     312     111     318      19     315     111
     318      19     321     114     324      19     321     114     327      19
     324     114     327      19     342     135     345      20     369     159
     372      19     375     165     378      19     375     165     381      19
     378     165     381      19
%FLAG ANGLES_WITHOUT_HYDROGEN                                                   
%FORMAT(10I8)                                                                   
       0       3       6       1       0       3       9       2       3       9
      12       2       6       3       9       2       9      12      15       5
      12      15      18       7      15      18      21       7      15      18
      24       9      15      18      60       7      18      24      27      10
      18      60      63       7      18      60      75       7      21      18
      24       9      21      18      60       7      24      18      60       9
      24      27      30      11      24      27      54       9      27      30
      33      10      27      54      48       7      27      54      57      13
      30      27      54       9      30      33      36       9      30      33
      42       9      33      36      39      13      33      42      45      13
      33      42      48       7      36      33      42       7      42      48
      51      13      42      48      54       7      45      42      48      13
      48      54      57      13      51      48      54      13      60      63
      66       7      60      75      69       7      60      75      78       7
      63      60      75       7      63      66      69       7      66      69
      72       7      66      69      75       7      66      69     162       7
      69      75      78       7      69     162     159       7      69     162
     165       7      69     162      87       7      72      69      75       7
      72      69     162       7      75      69     162       7      75      78
      81      13      75      78      84       7      78      84      87       7
      81      78      84      13      84      87      90       7      84      87
     162       7      87      90      93       7      87      90      96       7
      87      90     117       7      87     162     159       7      87     162
     165       7      90      87     162       7      90      96      99       7
      90     117     108       7      90     117     120       7      93      90
      96       7      93      90     117       7      96      90     117       7
      96      99     102       7      99     102     105      13      99     102
     108       7     102     108     111       7     102     108     114       7
     102     108     117       7     105     102     108      13     108     117
     120       7     111     108     114       7     111     108     117       7
     114     108     117       7     117     120     123       9     117     120
     159       7     120     123     126      10     120     159     162       7
     123     120     159       9     123     126     129      11     123     126
     153       9     126     129     132      10     126     153     147       7
     126     153     156      13     129     126     153       9     129     132
     135       9     129     132     141       9     132     135     138      13
     132     141     144      13     132     141     147       7     135     132
     141       7     141     147     150      13     141     147     153       7
     144     141     147      13     147     153     156      13     150     147
     153      13     159     162     165       7
%FLAG DIHEDRALS_INC_HYDROGEN                                                    
%FORMAT(10I8)                                                                   
       0       3       6     177       1       0       3       6     180       1
       0       3       6     183       1       0       3       9     186       4
       3       9      12     189       6       3       9     -12     189       7
       3       9      12     192       6       3       9     -12     192       7
     168       0       3       6       1     171       0       3       6       1
     174       0       3       6       1       6       3       9     186       4
     168       0       3       9       6     168       0      -3       9       7
     171       0       3       9       6     171       0      -3       9       7
     174       0       3       9       6     174       0      -3       9       7
       9       3       6     177       6       9       3      -6     177       7
       9       3       6     180       6       9       3      -6     180       7
       9       3       6     183       6       9       3      -6     183       7
       9      12      15     195       8       9      12      15     198       8
      15      12       9     186       5      15      18      21     201      12
      15      18      21     204      12      15      18      21     207      12
      15      18      60     243      12      18      15      12     189      12
      18      15      12     192      12      18      24      27     210      19
      18      60      63     246      12      18      60      63     249      12
      18      60      75     267      12      21      18      15     195      12
      21      18      15     198      12      21      18      60     243      12
      24      18      15     195      20      24      18     -15     195      21
      24      18      15     198      20      24      18     -15     198      21
      24      18      21     201      20      24      18     -21     201      21
      24      18      21     204      20      24      18     -21     204      21
      24      18      21     207      20      24      18     -21     207      21
      24      18      60     243      20      24      18     -60     243      21
      24      27      54     237      20      24      27     -54     237      21
      27      30      33     213      24      27      54      48     231       8
      27      54      57     240      21      30      27      54     237      20
      30      27     -54     237      21      30      33      36     216      20
      30      33     -36     216      21      30      33      36     219      20
      30      33     -36     219      21      30      33      42     225      20
      30      33     -42     225      21      33      30      27     210      19
      33      36      39     222      21      33      42      45     228      21
      33      42      48     231       8      36      33      42     225       8
      39      36      33     213      20      39      36     -33     213      21
      42      33      36     216       8      42      33      36     219       8
      42      48      51     234      21      42      48      54     237       8
      45      42      33     213      20      45      42     -33     213      21
      45      42      48     231      20      45      42     -48     231      21
      48      42      33     213       8      48      42      45     228      21
      48      54      57     240      21      48      54      27     210       8
      51      48      42     225      20      51      48     -42     225      21
      51      48      54     237      20      51      48     -54     237      21
      54      48      42     225       8      54      48      51     234      21
      57      54      48     231      20      57      54     -48     231      21
      57      54      27     210       8      60      18      15     195      12
      60      18      15     198      12      60      18      21     201      12
      60      18      21     204      12      60      18      21     207      12
      60      63      66     252      12      60      63      66     255      12
      60      75      78     270       8      63      60      75     267      12
      66      63      60     243      12      66      69      72     258      12
      66      69      72     261      12      66      69      72     264      12
      66      69      75     267      12      69      66      63     246      12
      69      66      63     249      12      69      75      78     270       8
      69      75      60     243      12      69     162     159     369      12
      69     162     159     372      12      69     162     165     375      12
      69     162     165     378      12      69     162     165     381      12
      69     162      87     282      12      72      69      66     252      12
      72      69      66     255      12      72      69      75     267      12
      75      69      66     252      12      75      69      66     255      12
      75      69      72     258      12      75      69      72     261      12
      75      69      72     264      12      75      78      81     273      21
      75      78      84     276      12      75      78      84     279      12
      75      60      63     246      12      75      60      63     249      12
      78      75      60     243      12      78      84      87     282      12
      81      78      75     267      28      81      78     -75     267      29
      81      78      84     276      28      81      78     -84     276      29
      81      78      84     279      28      81      78     -84     279      29
      84      78      75     267      12      84      78      81     273      21
      87      84      78     270       8      87      90      93     285      12
      87      90      93     288      12      87      90      93     291      12
      87      90      96     294      12      87      90      96     297      12
      87      90     117     330      12      87     162     159     369      12
      87     162     159     372      12      87     162     165     375      12
      87     162     165     378      12      87     162     165     381      12
      90      87      84     276      12      90      87      84     279      12
      90      96      99     300      12      90      96      99     303      12
      90     117     120     333       8      93      90      87     282      12
      93      90      96     294      12      93      90      96     297      12
      93      90     117     330      12      96      90      87     282      12
      96      90      93     285      12      96      90      93     288      12
      96      90      93     291      12      96      90     117     330      12
      96      99     102     306       8      99     102     105     309      21
     102      99      96     294      12     102      99      96     297      12
     102     108     111     312      12     102     108     111     315      12
     102     108     111     318      12     102     108     114     321      12
     102     108     114     324      12     102     108     114     327      12
     102     108     117     330      12     105     102      99     300      28
     105     102     -99     300      29     105     102      99     303      28
     105     102     -99     303      29     108     102      99     300      12
     108     102      99     303      12     108     102     105     309      21
     108     117     120     333       8     111     108     102     306       8
     111     108     114     321      12     111     108     114     324      12
     111     108     114     327      12     111     108     117     330      12
     114     108     102     306       8     114     108     111     312      12
     114     108     111     315      12     114     108     111     318      12
     114     108     117     330      12     117     108     102     306       8
     117     108     111     312      12     117     108     111     315      12
     117     108     111     318      12     117     108     114     321      12
     117     108     114     324      12     117     108     114     327      12
     117     120     159     369      12     117     120     159     372      12
     117      90      87     282      12     117      90      93     285      12
     117      90      93     288      12     117      90      93     291      12
     117      90      96     294      12     117      90      96     297      12
     120     123     126     336      19     123     120     117     330      20
     123     120    -117     330      21     123     120     159     369      20
     123     120    -159     369      21     123     120     159     372      20
     123     120    -159     372      21     123     126     153     363      20
     123     126    -153     363      21     126     123     120     333      24
     126     129     132     339      24     126     153     147     357       8
     126     153     156     366      21     129     126     153     363      20
     129     126    -153     363      21     129     132     135     342      20
     129     132    -135     342      21     129     132     135     345      20
     129     132    -135     345      21     129     132     141     351      20
     129     132    -141     351      21     132     129     126     336      19
     132     135     138     348      21     132     141     144     354      21
     132     141     147     357       8     135     132     141     351       8
     138     135     132     339      20     138     135    -132     339      21
     141     132     135     342       8     141     132     135     345       8
     141     147     150     360      21     141     147     153     363       8
     144     141     132     339      20     144     141    -132     339      21
     144     141     147     357      20     144     141    -147     357      21
     147     141     132     339       8     147     141     144     354      21
     147     153     156     366      21     147     153     126     336       8
     150     147     141     351      20     150     147    -141     351      21
     150     147     153     363      20     150     147    -153     363      21
     153     147     141     351       8     153     147     150     360      21
     156     153     147     357      20     156     153    -147     357      21
     156     153     126     336       8     159     120     117     330      12
     159     162     165     375      12     159     162     165     378      12
     159     162     165     381      12     159     162      87     282      12
     162     159     120     333       8     162      87      84     276      12
     162      87      84     279      12     162      69      66     252      12
     162      69      66     255      12     162      69      72     258      12
     162      69      72     261      12     162      69      72     264      12
     162      69      75     267      12     165     162     159     369      12
     165     162     159     372      12     165     162      87     282      12
     186       9      12     189       5     186       9      12     192       5
     189      12      15     195      30     189      12      15     198      30
     192      12      15     195      30     192      12      15     198      30
     210      27      54     237       8     213      33      36     216       8
     213      33      36     219       8     213      33      42     225       8
     216      36      39     222      31     219      36      39     222      31
     225      42      45     228      31     225      42      48     231       8
     231      48      51     234      31     231      48      54     237       8
     237      54      57     240      31     243      60      63     246      30
     243      60      63     249      30     243      60      75     267      30
     246      63      66     252      30     246      63      66     255      30
     249      63      66     252      30     249      63      66     255      30
     267      75      78     270       8     270      78      81     273      31
     270      78      84     276       8     270      78      84     279       8
     276      84      87     282      30     279      84      87     282      30
     294      96      99     300      30     294      96      99     303      30
     297      96      99     300      30     297      96      99     303      30
     300      99     102     306       8     303      99     102     306       8
     306     102     105     309      31     330     117     120     333       8
     333     120     159     369       8     333     120     159     372       8
     336     126     153     363       8     339     132     135     342       8
     339     132     135     345       8     339     132     141     351       8
     342     135     138     348      31     345     135     138     348      31
     351     141     144     354      31     351     141     147     357       8
     357     147     150     360      31     357     147     153     363       8
     363     153     156     366      31       3      12      -9    -186      32
%FLAG DIHEDRALS_WITHOUT_HYDROGEN                                                
%FORMAT(10I8)                                                                   
       0       3       9      12       2       0       3      -9      12       3
       3       9      12      15       5       6       3       9      12       2
       6       3      -9      12       3       9      12      15      18       8
      12      15      18      21       9      12      15     -18      21      10
      12      15     -18      21      11      12      15      18      24       8
      12      15      18      60       9      12      15     -18      60      10
      12      15     -18      60      11      15      18      24      27      13
      15      18     -24      27      14      15      18     -24      27      15
      15      18      60      63       9      15      18     -60      63      10
      15      18     -60      63      11      15      18      60      75       9
      15      18     -60      75      10      15      18     -60      75      11
      18      24      27      30      16      18      24     -27      30      17
      18      24     -27      30      18      18      24      27      54      13
      18      24     -27      54      14      18      24     -27      54      15
      18      60      63      66       9      18      60     -63      66      10
      18      60     -63      66      11      18      60      75      69       9
      18      60     -75      69      10      18      60     -75      69      11
      18      60      75      78       9      18      60     -75      78      10
      18      60     -75      78      11      21      18      24      27      13
      21      18     -24      27      14      21      18     -24      27      15
      21      18      60      63       9      21      18     -60      63      10
      21      18     -60      63      11      21      18      60      75       9
      21      18     -60      75      10      21      18     -60      75      11
      24      18      60      63       8      24      18      60      75       8
      24      27      30      33      16      24      27     -30      33      17
      24      27     -30      33      18      24      27      54      48       8
      24      27      54      57      22      24      27     -54      57       5
      24      27     -54      57      23      27      24      18      60      13
      27      24     -18      60      14      27      24     -18      60      15
      27      30      33      36      13      27      30     -33      36      14
      27      30     -33      36      15      27      30      33      42      13
      27      30     -33      42      14      27      30     -33      42      15
      27      54     -48      42       9      27      54     -48      42      10
      27      54     -48      42      11      27      54      48      51      25
      30      27      54      48       8      30      27      54      57      22
      30      27     -54      57       5      30      27     -54      57      23
      30      33      36      39      22      30      33     -36      39       5
      30      33     -36      39      23      30      33      42      45      22
      30      33     -42      45       5      30      33     -42      45      23
      30      33     -42      48       8      33      30      27      54      13
      33      30     -27      54      14      33      30     -27      54      15
      33      42      48      51      25      33      42     -48      54       9
      33      42     -48      54      10      33      42     -48      54      11
      36      33      42      45      25      36      33      42      48       9
      36      33     -42      48      10      36      33     -42      48      11
      39      36      33      42      25      42      48      54      57      25
      45      42      48      51      26      45      42     -48      51      27
      45      42      48      54      25      51      48      54      57      26
      51      48     -54      57      27      60      63     -66      69       9
      60      63     -66      69      10      60      63     -66      69      11
      60      75     -69      66       9      60      75     -69      66      10
      60      75     -69      66      11      60      75      69      72       9
      60      75     -69      72      10      60      75     -69      72      11
      60      75      69     162       9      60      75     -69     162      10
      60      75     -69     162      11      60      75      78      81      25
      60      75      78      84       9      60      75     -78      84      10
      60      75     -78      84      11      63      60     -75      69       9
      63      60     -75      69      10      63      60     -75      69      11
      63      60      75      78       9      63      60     -75      78      10
      63      60     -75      78      11      63      66      69      72       9
      63      66     -69      72      10      63      66     -69      72      11
      63      66     -69      75       9      63      66     -69      75      10
      63      66     -69      75      11      63      66      69     162       9
      63      66     -69     162      10      63      66     -69     162      11
      66      63     -60      75       9      66      63     -60      75      10
      66      63     -60      75      11      66      69      75      78       9
      66      69     -75      78      10      66      69     -75      78      11
      66      69     162     159       9      66      69    -162     159      10
      66      69    -162     159      11      66      69     162     165       9
      66      69    -162     165      10      66      69    -162     165      11
      66      69     162      87       9      66      69    -162      87      10
      66      69    -162      87      11      69      75      78      81      25
      69      75      78      84       9      69      75     -78      84      10
      69      75     -78      84      11      69     162     159     120       9
      69     162    -159     120      10      69     162    -159     120      11
      69     162     -87      84       9      69     162     -87      84      10
      69     162     -87      84      11      69     162      87      90       9
      69     162     -87      90      10      69     162     -87      90      11
      72      69      75      78       9      72      69     -75      78      10
      72      69     -75      78      11      72      69     162     159       9
      72      69    -162     159      10      72      69    -162     159      11
      72      69     162     165       9      72      69    -162     165      10
      72      69    -162     165      11      72      69     162      87       9
      72      69    -162      87      10      72      69    -162      87      11
      75      69     162     159       9      75      69    -162     159      10
      75      69    -162     159      11      75      69     162     165       9
      75      69    -162     165      10      75      69    -162     165      11
      75      69     162      87       9      75      69    -162      87      10
      75      69    -162      87      11      75      78     -84      87       9
      75      78     -84      87      10      75      78     -84      87      11
      78      75      69     162       9      78      75     -69     162      10
      78      75     -69     162      11      78      84      87      90       9
      78      84     -87      90      10      78      84     -87      90      11
      78      84     -87     162       9      78      84     -87     162      10
      78      84     -87     162      11      81      78      84      87      25
      84      87      90      93       9      84      87     -90      93      10
      84      87     -90      93      11      84      87      90      96       9
      84      87     -90      96      10      84      87     -90      96      11
      84      87      90     117       9      84      87     -90     117      10
      84      87     -90     117      11      84      87     162     159       9
      84      87    -162     159      10      84      87    -162     159      11
      84      87     162     165       9      84      87    -162     165      10
      84      87    -162     165      11      87      90      96      99       9
      87      90     -96      99      10      87      90     -96      99      11
      87      90     117     108       9      87      90    -117     108      10
      87      90    -117     108      11      87      90     117     120       9
      87      90    -117     120      10      87      90    -117     120      11
      87     162    -159     120       9      87     162    -159     120      10
      87     162    -159     120      11      90      87     162     159       9
      90      87    -162     159      10      90      87    -162     159      11
      90      87     162     165       9      90      87    -162     165      10
      90      87    -162     165      11      90      96      99     102       9
      90      96     -99     102      10      90      96     -99     102      11
      90     117    -108     102       9      90     117    -108     102      10
      90     117    -108     102      11      90     117     108     111       9
      90     117    -108     111      10      90     117    -108     111      11
      90     117     108     114       9      90     117    -108     114      10
      90     117    -108     114      11      90     117     120     123       8
      90     117    -120     159       9      90     117    -120     159      10
      90     117    -120     159      11      93      90      87     162       9
      93      90     -87     162      10      93      90     -87     162      11
      93      90      96      99       9      93      90     -96      99      10
      93      90     -96      99      11      93      90     117     108       9
      93      90    -117     108      10      93      90    -117     108      11
      93      90     117     120       9      93      90    -117     120      10
      93      90    -117     120      11      96      90      87     162       9
      96      90     -87     162      10      96      90     -87     162      11
      96      90     117     108       9      96      90    -117     108      10
      96      90    -117     108      11      96      90     117     120       9
      96      90    -117     120      10      96      90    -117     120      11
      96      99     102     105      25      96      99    -102     108       9
      96      99    -102     108      10      96      99    -102     108      11
      99      96      90     117       9      99      96     -90     117      10
      99      96     -90     117      11      99     102     108     111       9
      99     102    -108     111      10      99     102    -108     111      11
      99     102     108     114       9      99     102    -108     114      10
      99     102    -108     114      11      99     102    -108     117       9
      99     102    -108     117      10      99     102    -108     117      11
     102     108     117     120       9     102     108    -117     120      10
     102     108    -117     120      11     105     102     108     111      25
     105     102     108     114      25     105     102     108     117      25
     108     117     120     123       8     108     117     120     159       9
     108     117    -120     159      10     108     117    -120     159      11
     111     108     117     120       9     111     108    -117     120      10
     111     108    -117     120      11     114     108     117     120       9
     114     108    -117     120      10     114     108    -117     120      11
     117     120     123     126      13     117     120    -123     126      14
     117     120    -123     126      15     117     120     159     162       9
     117     120    -159     162      10     117     120    -159     162      11
     117      90     -87     162       9     117      90     -87     162      10
     117      90     -87     162      11     120     123     126     129      16
     120     123    -126     129      17     120     123    -126     129      18
     120     123     126     153      13     120     123    -126     153      14
     120     123    -126     153      15     120     159     162     165       9
     120     159    -162     165      10     120     159    -162     165      11
     123     120     159     162       8     123     126     129     132      16
     123     126    -129     132      17     123     126    -129     132      18
     123     126     153     147       8     123     126     153     156      22
     123     126    -153     156       5     123     126    -153     156      23
     126     123     120     159      13     126     123    -120     159      14
     126     123    -120     159      15     126     129     132     135      13
     126     129    -132     135      14     126     129    -132     135      15
     126     129     132     141      13     126     129    -132     141      14
     126     129    -132     141      15     126     153    -147     141       9
     126     153    -147     141      10     126     153    -147     141      11
     126     153     147     150      25     129     126     153     147       8
     129     126     153     156      22     129     126    -153     156       5
     129     126    -153     156      23     129     132     135     138      22
     129     132    -135     138       5     129     132    -135     138      23
     129     132     141     144      22     129     132    -141     144       5
     129     132    -141     144      23     129     132    -141     147       8
     132     129     126     153      13     132     129    -126     153      14
     132     129    -126     153      15     132     141     147     150      25
     132     141    -147     153       9     132     141    -147     153      10
     132     141    -147     153      11     135     132     141     144      25
     135     132     141     147       9     135     132    -141     147      10
     135     132    -141     147      11     138     135     132     141      25
     141     147     153     156      25     144     141     147     150      26
     144     141    -147     150      27     144     141     147     153      25
     150     147     153     156      26     150     147    -153     156      27
       9       0      -3      -6      32
%FLAG EXCLUDED_ATOMS_LIST                                                       
%FORMAT(10I8)                                                                   
       2       3       4       5      57      58      59      60      61      62
      63       3       4       5       6      57      58      59      60      61
      62      63      64      65       4       5      57      58      59      60
      61      62      63       5       6       7      57      58      59      60
      61      62      63      64      65      66      67       6       7       8
       9      21      63      64      65      66      67       7       8       9
      10      21      22      26      63      64      65      66      67      68
      69      70      82       8       9      10      11      19      21      22
      23      24      26      27      64      65      66      67      68      69
      70      71      82      83      84      90       9      10      21      22
      26      66      67      68      69      70      82      10      11      12
      17      19      20      21      22      26      66      67      68      69
      70      71      80      82      11      12      13      15      17      18
      19      20      21      71      72      78      80      81      12      13
      14      15      16      17      19      20      71      72      73      74
      76      80      13      14      15      16      17      18      19      71
      72      73      74      75      76      77      78      14      15      16
      17      72      73      74      75      76      15      72      73      74
      75      16      17      18      19      20      72      73      74      76
      77      78      79      80      17      18      19      72      76      77
      78      18      19      20      71      72      76      77      78      79
      80      81      19      20      76      78      79      80      20      71
      76      78      79      80      81      71      78      80      81      22
      23      24      25      26      27      28      29      55      66      67
      68      69      70      82      83      84      85      86      90      91
      23      24      25      26      27      55      82      83      84      85
      86      90      24      25      26      27      30      54      55      56
      82      83      84      85      86      87      88      89      90      25
      26      27      28      29      30      31      41      54      55      56
      82      83      84      85      86      87      88      89      90      91
      95     124     125     126     127     128      26      27      30      54
      55      56      85      86      87      88      89      90      27      28
      29      30      54      55      56      82      83      84      85      86
      87      88      89      90      91      92      93      94      28      29
      30      31      55      82      90      91      92      93      94      95
      29      30      90      91      92      93      94      30      31      32
      33      40      54      55      56      90      91      92      93      94
      95      31      32      33      34      37      40      41      54      55
      56      91      93      94      95      96      97      98      99     100
     111     124     125     126     127     128      32      33      34      35
      37      38      39      40      41      42      54      55      56      93
      94      95      96      97      98      99     100     101     102     111
     112      33      34      37      40      41      55      95      96      97
      98      99     100     111      34      35      36      37      40      41
      55      95      96      97      98      99     100     101     102     103
     111      35      36      37      38      39      40      99     100     101
     102     103     104      36      37      38      39      40      41      99
     100     101     102     103     104     105     106     107     108     109
     110     111      37      38      39      40     101     102     103     104
      38      39      40      41      42      54     101     102     103     104
     105     106     107     108     109     110     111     112      39      40
      41     103     105     106     107     108     109     110     111      40
      41     103     105     106     107     108     109     110     111      41
      42      43      54      55      95      96      97      98      99     100
     103     105     106     107     108     109     110     111     112     124
     125      42      43      44      52      54      55      56     111     112
     113     124     125      43      44      45      50      52      53      54
      55     111     112     113     122     124     125      44      45      46
      48      50      51      52      53      54     112     113     114     120
     122     123      45      46      47      48      49      50      52      53
     113     114     115     116     118     122      46      47      48      49
      50      51      52     113     114     115     116     117     118     119
     120      47      48      49      50     114     115     116     117     118
      48     114     115     116     117      49      50      51      52      53
     114     115     116     118     119     120     121     122      50      51
      52     114     118     119     120      51      52      53     113     114
     118     119     120     121     122     123      52      53     118     120
     121     122      53     113     118     120     121     122     123     113
     120     122     123      55      56      95     111     112     124     125
     126     127     128      56      85      86      87      88      89      90
      93      94      95     112     124     125     126     127     128      95
     124     125     126     127     128      58      59      59       0      61
      62      62       0      64      65      65      66      67      66      67
      67       0      69      70      70       0      80      73      74      76
      74      75      75       0      77      78       0      79      80       0
      81       0      83      84      90      84      85      86      85      86
      86       0      88      89      89       0      91      92      93      94
       0      94      95      95       0      97      98      98       0     100
     101     102     101     102     102     103     103     104       0     106
     107     107       0     109     110     110       0     112     124     125
     122     115     116     118     116     117     117       0     119     120
       0     121     122       0     123       0     125       0     127     128
     128       0
%FLAG HBOND_ACOEF                                                               
%FORMAT(5E16.8)                                                                 

%FLAG HBOND_BCOEF                                                               
%FORMAT(5E16.8)                                                                 

%FLAG HBCUT                                                                     
%FORMAT(5E16.8)                                                                 

%FLAG AMBER_ATOM_TYPE                                                           
%FORMAT(20a4)                                                                   
c3  c2  c3  c2  c3  c3  c3  c3  os  c3  os  c3  c3  oh  c3  oh  c3  oh  c3  oh  
c3  c3  c3  c3  c3  c3  c3  oh  c3  c3  c3  c3  c3  c3  c3  oh  c3  c3  c3  c3  
c3  os  c3  os  c3  c3  oh  c3  oh  c3  oh  c3  oh  c3  c3  c3  hc  hc  hc  hc  
hc  hc  ha  hc  hc  hc  hc  hc  hc  hc  h2  h1  h1  h1  ho  h1  ho  h1  ho  h1  
ho  hc  hc  hc  hc  hc  hc  hc  hc  hc  h1  ho  hc  hc  hc  hc  hc  hc  hc  hc  
hc  hc  h1  ho  hc  hc  hc  hc  hc  hc  hc  h1  h2  h1  h1  h1  ho  h1  ho  h1  
ho  h1  ho  hc  hc  hc  hc  hc  
%FLAG TREE_CHAIN_CLASSIFICATION                                                 
%FORMAT(20a4)                                                                   
BLA BLA BLA BLA BLA BLA BLA BLA BLA BLA BLA BLA BLA BLA BLA BLA BLA BLA BLA BLA 
BLA BLA BLA BLA BLA BLA BLA BLA BLA BLA BLA BLA BLA BLA BLA BLA BLA BLA BLA BLA 
BLA BLA BLA BLA BLA BLA BLA BLA BLA BLA BLA BLA BLA BLA BLA BLA BLA BLA BLA BLA 
BLA BLA BLA BLA BLA BLA BLA BLA BLA BLA BLA BLA BLA BLA BLA BLA BLA BLA BLA BLA 
BLA BLA BLA BLA BLA BLA BLA BLA BLA BLA BLA BLA BLA BLA BLA BLA BLA BLA BLA BLA 
BLA BLA BLA BLA BLA BLA BLA BLA BLA BLA BLA BLA BLA BLA BLA BLA BLA BLA BLA BLA 
BLA BLA BLA BLA BLA BLA BLA BLA 
%FLAG JOIN_ARRAY                                                                
%FORMAT(10I8)                                                                   
       0       0       0       0       0       0       0       0       0       0
       0       0       0       0       0       0       0       0       0       0
       0       0       0       0       0       0       0       0       0       0
       0       0       0       0       0       0       0       0       0       0
       0       0       0       0       0       0       0       0       0       0
       0       0       0       0       0       0       0       0       0       0
       0       0       0       0       0       0       0       0       0       0
       0       0       0       0       0       0       0       0       0       0
       0       0       0       0       0       0       0       0       0       0
       0       0       0       0       0       0       0       0       0       0
       0       0       0       0       0       0       0       0       0       0
       0       0       0       0       0       0       0       0       0       0
       0       0       0       0       0       0       0       0
%FLAG IROTAT                                                                    
%FORMAT(10I8)                                                                   
       0       0       0       0       0       0       0       0       0       0
       0       0       0       0       0       0       0       0       0       0
       0       0       0       0       0       0       0       0       0       0
       0       0       0       0       0       0       0       0       0       0
       0       0       0       0       0       0       0       0       0       0
       0       0       0       0       0       0       0       0       0       0
       0       0       0       0       0       0       0       0       0       0
       0       0       0       0       0       0       0       0       0       0
       0       0       0       0       0       0       0       0       0       0
       0       0       0       0       0       0       0       0       0       0
       0       0       0       0       0       0       0       0       0       0
       0       0       0       0       0       0       0       0       0       0
       0       0       0       0       0       0       0       0
%FLAG RADIUS_SET                                                                
%FORMAT(1a80)                                                                   
modified Bondi radii (mbondi)                                                   
%FLAG RADII                                                                     
%FORMAT(5E16.8)                                                                 
  1.70000000E+00  1.70000000E+00  1.70000000E+00  1.70000000E+00  1.70000000E+00
  1.70000000E+00  1.70000000E+00  1.70000000E+00  1.50000000E+00  1.70000000E+00
  1.50000000E+00  1.70000000E+00  1.70000000E+00  1.50000000E+00  1.70000000E+00
  1.50000000E+00  1.70000000E+00  1.50000000E+00  1.70000000E+00  1.50000000E+00
  1.70000000E+00  1.70000000E+00  1.70000000E+00  1.70000000E+00  1.70000000E+00
  1.70000000E+00  1.70000000E+00  1.50000000E+00  1.70000000E+00  1.70000000E+00
  1.70000000E+00  1.70000000E+00  1.70000000E+00  1.70000000E+00  1.70000000E+00
  1.50000000E+00  1.70000000E+00  1.70000000E+00  1.70000000E+00  1.70000000E+00
  1.70000000E+00  1.50000000E+00  1.70000000E+00  1.50000000E+00  1.70000000E+00
  1.70000000E+00  1.50000000E+00  1.70000000E+00  1.50000000E+00  1.70000000E+00
  1.50000000E+00  1.70000000E+00  1.50000000E+00  1.70000000E+00  1.70000000E+00
  1.70000000E+00  1.30000000E+00  1.30000000E+00  1.30000000E+00  1.30000000E+00
  1.30000000E+00  1.30000000E+00  1.30000000E+00  1.30000000E+00  1.30000000E+00
  1.30000000E+00  1.30000000E+00  1.30000000E+00  1.30000000E+00  1.30000000E+00
  1.30000000E+00  1.30000000E+00  1.30000000E+00  1.30000000E+00  8.00000000E-01
  1.30000000E+00  8.00000000E-01  1.30000000E+00  8.00000000E-01  1.30000000E+00
  8.00000000E-01  1.30000000E+00  1.30000000E+00  1.30000000E+00  1.30000000E+00
  1.30000000E+00  1.30000000E+00  1.30000000E+00  1.30000000E+00  1.30000000E+00
  1.30000000E+00  8.00000000E-01  1.30000000E+00  1.30000000E+00  1.30000000E+00
  1.30000000E+00  1.30000000E+00  1.30000000E+00  1.30000000E+00  1.30000000E+00
  1.30000000E+00  1.30000000E+00  1.30000000E+00  8.00000000E-01  1.30000000E+00
  1.30000000E+00  1.30000000E+00  1.30000000E+00  1.30000000E+00  1.30000000E+00
  1.30000000E+00  1.30000000E+00  1.30000000E+00  1.30000000E+00  1.30000000E+00
  1.30000000E+00  8.00000000E-01  1.30000000E+00  8.00000000E-01  1.30000000E+00
  8.00000000E-01  1.30000000E+00  8.00000000E-01  1.30000000E+00  1.30000000E+00
  1.30000000E+00  1.30000000E+00  1.30000000E+00
%FLAG SCREEN                                                                    
%FORMAT(5E16.8)                                                                 
  7.20000000E-01  7.20000000E-01  7.20000000E-01  7.20000000E-01  7.20000000E-01
  7.20000000E-01  7.20000000E-01  7.20000000E-01  8.50000000E-01  7.20000000E-01
  8.50000000E-01  7.20000000E-01  7.20000000E-01  8.50000000E-01  7.20000000E-01
  8.50000000E-01  7.20000000E-01  8.50000000E-01  7.20000000E-01  8.50000000E-01
  7.20000000E-01  7.20000000E-01  7.20000000E-01  7.20000000E-01  7.20000000E-01
  7.20000000E-01  7.20000000E-01  8.50000000E-01  7.20000000E-01  7.20000000E-01
  7.20000000E-01  7.20000000E-01  7.20000000E-01  7.20000000E-01  7.20000000E-01
  8.50000000E-01  7.20000000E-01  7.20000000E-01  7.20000000E-01  7.20000000E-01
  7.20000000E-01  8.50000000E-01  7.20000000E-01  8.50000000E-01  7.20000000E-01
  7.20000000E-01  8.50000000E-01  7.20000000E-01  8.50000000E-01  7.20000000E-01
  8.50000000E-01  7.20000000E-01  8.50000000E-01  7.20000000E-01  7.20000000E-01
  7.20000000E-01  8.50000000E-01  8.50000000E-01  8.50000000E-01  8.50000000E-01
  8.50000000E-01  8.50000000E-01  8.50000000E-01  8.50000000E-01  8.50000000E-01
  8.50000000E-01  8.50000000E-01  8.50000000E-01  8.50000000E-01  8.50000000E-01
  8.50000000E-01  8.50000000E-01  8.50000000E-01  8.50000000E-01  8.50000000E-01
  8.50000000E-01  8.50000000E-01  8.50000000E-01  8.50000000E-01  8.50000000E-01
  8.50000000E-01  8.50000000E-01  8.50000000E-01  8.50000000E-01  8.50000000E-01
  8.50000000E-01  8.50000000E-01  8.50000000E-01  8.50000000E-01  8.50000000E-01
  8.50000000E-01  8.50000000E-01  8.50000000E-01  8.50000000E-01  8.50000000E-01
  8.50000000E-01  8.50000000E-01  8.50000000E-01  8.50000000E-01  8.50000000E-01
  8.50000000E-01  8.50000000E-01  8.50000000E-01  8.50000000E-01  8.50000000E-01
  8.50000000E-01  8.50000000E-01  8.50000000E-01  8.50000000E-01  8.50000000E-01
  8.50000000E-01  8.50000000E-01  8.50000000E-01  8.50000000E-01  8.50000000E-01
  8.50000000E-01  8.50000000E-01  8.50000000E-01  8.50000000E-01  8.50000000E-01
  8.50000000E-01  8.50000000E-01  8.50000000E-01  8.50000000E-01  8.50000000E-01
  8.50000000E-01  8.50000000E-01  8.50000000E-01
%FLAG IPOL                                                                      
%FORMAT(1I8)                                                                    
       0
