MOL
   128
  -2.4110000   9.2610000  -3.0840000  -2.7770000   7.9660000  -2.4090000
  -2.7280000   8.0120000  -0.9060000  -3.0980000   6.8770000  -3.1350000
  -3.5210000   5.5280000  -2.6110000  -2.3290000   4.5680000  -2.5390000
  -2.5990000   3.1140000  -2.0270000  -3.6730000   2.4380000  -2.8890000
  -2.9250000   3.1150000  -0.6250000  -4.2570000   3.3600000  -0.2010000
  -4.2980000   4.4960000   0.6730000  -3.3600000   4.4090000   1.7700000
  -3.8740000   5.3770000   2.8440000  -4.0130000   6.6850000   2.2840000
  -3.1670000   2.9690000   2.2870000  -2.8280000   2.9060000   3.6780000
  -4.4360000   2.1490000   2.0420000  -4.2270000   0.8110000   2.5230000
  -4.8210000   2.1290000   0.5490000  -6.2600000   2.1070000   0.4440000
  -1.2220000   2.3160000  -2.1180000  -0.1700000   2.9300000  -1.1340000
   0.2280000   1.8230000  -0.1540000   0.1000000   0.5340000  -0.9750000
   1.3230000   0.5390000  -1.9600000  -1.2510000   0.8040000  -1.7120000
  -1.4470000  -0.2890000  -2.7750000  -2.6450000  -0.1070000  -3.5100000
  -1.5060000  -1.6800000  -2.1030000  -0.2840000  -1.9980000  -1.2010000
  -0.2090000  -3.4800000  -0.6280000  -1.3990000  -3.7990000   0.3090000
  -0.2960000  -4.4690000  -1.8300000   0.0310000  -5.9120000  -1.4800000
   1.4040000  -6.0410000  -0.8450000   1.6150000  -7.4160000  -0.5170000
   1.6250000  -5.1400000   0.4100000   0.8790000  -5.6980000   1.6390000
   3.1460000  -5.2570000   0.7230000   1.2140000  -3.6450000   0.0660000
   1.4070000  -2.5690000   1.1940000   2.6860000  -2.7340000   1.8210000
   2.9210000  -1.8900000   2.9550000   3.5840000  -0.7010000   2.5240000
   3.8570000   0.2010000   3.6130000   4.4600000   1.4750000   3.0130000
   3.5600000   2.0080000   2.0370000   4.8070000  -0.4510000   4.6220000
   5.0370000   0.4050000   5.7420000   4.2010000  -1.7670000   5.1120000
   5.1490000  -2.4300000   5.9640000   3.8170000  -2.6680000   3.9400000
   3.1470000  -3.8220000   4.4710000   1.3040000  -1.1470000   0.5940000
  -0.0100000  -0.8420000  -0.1620000  -1.1360000  -0.7440000   0.9110000
  -2.4650000   9.1910000  -4.1750000  -3.0930000  10.0580000  -2.7680000
  -1.3890000   9.5520000  -2.8200000  -1.7650000   8.4150000  -0.5730000
  -3.5230000   8.6580000  -0.5220000  -2.8340000   7.0290000  -0.4420000
  -3.0770000   6.9490000  -4.2220000  -4.2900000   5.1450000  -3.2900000
  -4.0010000   5.6390000  -1.6370000  -1.8800000   4.5050000  -3.5400000
  -1.5830000   5.0470000  -1.8940000  -4.0110000   1.5030000  -2.4350000
  -4.5800000   3.0390000  -2.9940000  -3.3080000   2.2590000  -3.9050000
  -4.9220000   3.6080000  -1.0300000  -2.4000000   4.7940000   1.4030000
  -3.1880000   5.4480000   3.6920000  -4.8620000   5.0730000   3.2070000
  -4.4480000   6.5540000   1.4190000  -2.3390000   2.4850000   1.7590000
  -1.9250000   3.2640000   3.7710000  -5.2580000   2.5500000   2.6470000
  -3.8660000   0.9200000   3.4250000  -4.4680000   1.2060000   0.0750000
  -6.5950000   2.9370000   0.8280000  -0.8420000   2.3970000  -3.1450000
  -0.5240000   3.7960000  -0.5690000   0.7030000   3.2740000  -1.7030000
   1.2330000   1.9840000   0.2470000  -0.4630000   1.8570000   0.6890000
   2.2650000   0.6680000  -1.4160000   1.4200000  -0.3670000  -2.5580000
   1.2720000   1.3560000  -2.6870000  -2.0880000   0.7220000  -1.0100000
  -0.6340000  -0.2630000  -3.5080000  -2.7230000  -0.8410000  -4.1440000
  -2.4420000  -1.7620000  -1.5400000  -1.5910000  -2.4210000  -2.9060000
   0.5620000  -1.9830000  -1.8980000  -1.7080000  -4.8460000   0.2630000
  -2.2950000  -3.2310000   0.0430000  -1.1820000  -3.6060000   1.3600000
   0.3910000  -4.1460000  -2.6230000  -1.3020000  -4.4550000  -2.2650000
   0.0010000  -6.5160000  -2.3970000  -0.7330000  -6.3600000  -0.8360000
   2.1560000  -5.7780000  -1.6020000   1.5440000  -7.9310000  -1.3390000
   0.9430000  -5.0160000   2.4920000  -0.1760000  -5.8890000   1.4400000
   1.3110000  -6.6520000   1.9650000   3.7450000  -4.6870000   0.0040000
   3.3990000  -4.9180000   1.7280000   3.4900000  -6.2970000   0.6770000
   1.9480000  -3.3650000  -0.7090000   0.6550000  -2.7190000   1.9710000
   1.9660000  -1.6440000   3.4390000   2.9030000   0.4700000   4.0850000
   5.4050000   1.2640000   2.5020000   4.6310000   2.2400000   3.7750000
   3.3630000   1.2610000   1.4390000   5.7810000  -0.6520000   4.1580000
   5.5000000  -0.1530000   6.4010000   3.3270000  -1.5680000   5.7460000
   4.7770000  -3.3240000   6.1110000   4.7200000  -3.0330000   3.4360000
   2.8590000  -4.3420000   3.6960000   1.4250000  -0.3960000   1.3820000
   2.1730000  -1.0180000  -0.0610000  -1.1290000  -1.5770000   1.6130000
  -1.0180000   0.1340000   1.5510000  -2.1390000  -0.7110000   0.4810000
