%VERSION  VERSION_STAMP = V0001.000  DATE = 07/11/26  13:38:05                  
%FLAG TITLE                                                                     
%FORMAT(20a4)                                                                   
MOL                                                                             
%FLAG POINTERS                                                                  
%FORMAT(10I8)                                                                   
      54      10      31      23      69      28     116      45       0       0
     282       1      23      28      45      12      22      25      10       0
       0       0       0       0       0       0       0       0      54       0
       0
%FLAG ATOM_NAME                                                                 
%FORMAT(20a4)                                                                   
C1  C2  C3  N1  C4  C5  O1  C6  O2  C7  C8  C9  C10 C11 O3  C12 C13 O4  C14 C15 
C16 C17 C18 H1  H2  H3  H4  H5  H6  H7  H8  H9  H10 H11 H12 H13 H14 H15 H16 H17 
H18 H19 H20 H21 H22 H23 H24 H25 H26 H27 H28 H29 H30 H31 
%FLAG CHARGE                                                                    
%FORMAT(5E16.8)                                                                 
 -1.98805293E+00  3.14334675E+00 -1.98805293E+00 -1.50188197E+01  3.07592424E+00
  2.53472193E+00 -1.10572916E+01  1.73840742E+00 -6.41242737E+00  2.29783203E+00
 -3.29823630E+00 -1.55800665E+00 -2.17392039E+00  3.14699121E+00 -7.73718858E+00
  2.35796562E+00  1.70196282E+00 -7.90118928E+00  2.55294423E+00 -1.98805293E+00
 -1.98805293E+00 -1.55800665E+00 -3.29823630E+00  6.99134984E-01  6.99134984E-01
  6.99134984E-01  9.23870610E-01  6.99134984E-01  6.99134984E-01  6.99134984E-01
  6.77505114E+00  7.41647610E-01  7.41647610E-01  9.42092910E-01  7.63514370E+00
  1.10609361E+00  1.10609361E+00  2.61490005E+00  2.59667775E+00  8.60092560E-01
  8.60092560E-01  1.09698246E+00  1.09698246E+00  7.23425310E-01  7.23425310E-01
  6.50536110E-01  8.02382536E-01  8.02382536E-01  8.02382536E-01  8.02382536E-01
  8.02382536E-01  8.02382536E-01  2.59667775E+00  2.61490005E+00
%FLAG ATOMIC_NUMBER                                                             
%FORMAT(10I8)                                                                   
       6       6       6       7       6       6       8       6       8       6
       6       6       6       6       8       6       6       8       6       6
       6       6       6       1       1       1       1       1       1       1
       1       1       1       1       1       1       1       1       1       1
       1       1       1       1       1       1       1       1       1       1
       1       1       1       1
%FLAG MASS                                                                      
%FORMAT(5E16.8)                                                                 
  1.20100000E+01  1.20100000E+01  1.20100000E+01  1.40100000E+01  1.20100000E+01
  1.20100000E+01  1.60000000E+01  1.20100000E+01  1.60000000E+01  1.20100000E+01
  1.20100000E+01  1.20100000E+01  1.20100000E+01  1.20100000E+01  1.60000000E+01
  1.20100000E+01  1.20100000E+01  1.60000000E+01  1.20100000E+01  1.20100000E+01
  1.20100000E+01  1.20100000E+01  1.20100000E+01  1.00800000E+00  1.00800000E+00
  1.00800000E+00  1.00800000E+00  1.00800000E+00  1.00800000E+00  1.00800000E+00
  1.00800000E+00  1.00800000E+00  1.00800000E+00  1.00800000E+00  1.00800000E+00
  1.00800000E+00  1.00800000E+00  1.00800000E+00  1.00800000E+00  1.00800000E+00
  1.00800000E+00  1.00800000E+00  1.00800000E+00  1.00800000E+00  1.00800000E+00
  1.00800000E+00  1.00800000E+00  1.00800000E+00  1.00800000E+00  1.00800000E+00
  1.00800000E+00  1.00800000E+00  1.00800000E+00  1.00800000E+00
%FLAG ATOM_TYPE_INDEX                                                           
%FORMAT(10I8)                                                                   
       1       1       1       2       1       1       3       1       4       5
       5       5       5       1       4       1       1       4       1       1
       1       5       5       6       6       6       7       6       6       6
       8       7       7       7       9       7       7      10      10       7
       7       7       7       7       7       7       6       6       6       6
       6       6      10      10
%FLAG NUMBER_EXCLUDED_ATOMS                                                     
%FORMAT(10I8)                                                                   
      12      14      10      15      12      11       8      10      10      11
       8      10      11      11      10       9       9      14      11       8
       7       6       3       3       2       1       4       2       1       1
       2       2       1       3       1       1       1       1       1       1
       1       3       2       1       1       6       2       1       1       2
       1       1       1       1
%FLAG NONBONDED_PARM_INDEX                                                      
%FORMAT(10I8)                                                                   
       1       2       4       7      11      16      22      29      37      46
       2       3       5       8      12      17      23      30      38      47
       4       5       6       9      13      18      24      31      39      48
       7       8       9      10      14      19      25      32      40      49
      11      12      13      14      15      20      26      33      41      50
      16      17      18      19      20      21      27      34      42      51
      22      23      24      25      26      27      28      35      43      52
      29      30      31      32      33      34      35      36      44      53
      37      38      39      40      41      42      43      44      45      54
      46      47      48      49      50      51      52      53      54      55
%FLAG RESIDUE_LABEL                                                             
%FORMAT(20a4)                                                                   
MOL 
%FLAG RESIDUE_POINTER                                                           
%FORMAT(10I8)                                                                   
       1
%FLAG BOND_FORCE_CONSTANT                                                       
%FORMAT(5E16.8)                                                                 
  2.32500000E+02  3.75900000E+02  2.61200000E+02  3.75900000E+02  5.11300000E+02
  2.93400000E+02  5.63500000E+02  2.84800000E+02  3.57500000E+02  3.78600000E+02
  3.95700000E+02  2.50300000E+02
%FLAG BOND_EQUIL_VALUE                                                          
%FORMAT(5E16.8)                                                                 
  1.53800000E+00  1.09700000E+00  1.46500000E+00  1.09700000E+00  1.01900000E+00
  1.42300000E+00  9.73000000E-01  1.43200000E+00  1.37000000E+00  1.39800000E+00
  1.08600000E+00  1.51600000E+00
%FLAG ANGLE_FORCE_CONSTANT                                                      
%FORMAT(5E16.8)                                                                 
  6.49000000E+01  8.33000000E+01  4.69000000E+01  4.68000000E+01  6.57000000E+01
  4.78000000E+01  6.12000000E+01  8.46000000E+01  4.90000000E+01  8.53000000E+01
  6.25000000E+01  6.61000000E+01  6.24000000E+01  8.73000000E+01  6.88000000E+01
  4.87000000E+01  6.56000000E+01  8.56000000E+01  4.75000000E+01  6.63000000E+01
  3.90000000E+01  3.88000000E+01
%FLAG ANGLE_EQUIL_VALUE                                                         
%FORMAT(5E16.8)                                                                 
  1.94621748E+00  1.93801443E+00  1.91218355E+00  1.91637234E+00  1.96087826E+00
  1.90747116E+00  1.91776860E+00  1.92317913E+00  1.87204096E+00  1.88443280E+00
  1.92440086E+00  2.05879127E+00  1.91602327E+00  2.08043336E+00  2.09474507E+00
  2.09230160E+00  2.10783504E+00  1.90153704E+00  1.91218355E+00  1.96314718E+00
  1.87762601E+00  1.89298492E+00
%FLAG DIHEDRAL_FORCE_CONSTANT                                                   
%FORMAT(5E16.8)                                                                 
  8.00000000E-02  5.00000000E-02  2.00000000E-02  2.17000000E-01  2.25000000E-01
  1.00000000E-01  1.55555556E-01  2.10000000E-01  0.00000000E+00  3.83333333E-01
  2.50000000E-01  2.00000000E-02  0.00000000E+00  1.01000000E+00  1.61000000E+00
  3.62500000E+00  0.00000000E+00  1.60000000E-01  2.40000000E-01  3.37000000E-01
  1.70000000E-01  0.00000000E+00  3.00000000E-01  1.13000000E-01  1.10000000E+00
%FLAG DIHEDRAL_PERIODICITY                                                      
%FORMAT(5E16.8)                                                                 
  3.00000000E+00  2.00000000E+00  3.00000000E+00  3.00000000E+00  3.00000000E+00
  3.00000000E+00  3.00000000E+00  3.00000000E+00  3.00000000E+00  3.00000000E+00
  1.00000000E+00  1.00000000E+00  2.00000000E+00  3.00000000E+00  2.00000000E+00
  2.00000000E+00  1.00000000E+00  2.00000000E+00  3.00000000E+00  3.00000000E+00
  1.00000000E+00  2.00000000E+00  3.00000000E+00  3.00000000E+00  2.00000000E+00
%FLAG DIHEDRAL_PHASE                                                            
%FORMAT(5E16.8)                                                                 
  0.00000000E+00  0.00000000E+00  3.14159400E+00  0.00000000E+00  0.00000000E+00
  0.00000000E+00  0.00000000E+00  0.00000000E+00  0.00000000E+00  0.00000000E+00
  0.00000000E+00  3.14159400E+00  0.00000000E+00  0.00000000E+00  3.14159400E+00
  3.14159400E+00  0.00000000E+00  0.00000000E+00  0.00000000E+00  0.00000000E+00
  3.14159400E+00  3.14159400E+00  0.00000000E+00  0.00000000E+00  3.14159400E+00
%FLAG SCEE_SCALE_FACTOR                                                         
%FORMAT(5E16.8)                                                                 
  1.20000000E+00  1.20000000E+00  1.20000000E+00  1.20000000E+00  1.20000000E+00
  1.20000000E+00  1.20000000E+00  1.20000000E+00  1.20000000E+00  1.20000000E+00
  1.20000000E+00  1.20000000E+00  1.20000000E+00  1.20000000E+00  1.20000000E+00
  1.20000000E+00  1.20000000E+00  1.20000000E+00  1.20000000E+00  1.20000000E+00
  1.20000000E+00  1.20000000E+00  1.20000000E+00  1.20000000E+00  0.00000000E+00
%FLAG SCNB_SCALE_FACTOR                                                         
%FORMAT(5E16.8)                                                                 
  2.00000000E+00  2.00000000E+00  2.00000000E+00  2.00000000E+00  2.00000000E+00
  2.00000000E+00  2.00000000E+00  2.00000000E+00  2.00000000E+00  2.00000000E+00
  2.00000000E+00  2.00000000E+00  2.00000000E+00  2.00000000E+00  2.00000000E+00
  2.00000000E+00  2.00000000E+00  2.00000000E+00  2.00000000E+00  2.00000000E+00
  2.00000000E+00  2.00000000E+00  2.00000000E+00  2.00000000E+00  0.00000000E+00
%FLAG SOLTY                                                                     
%FORMAT(5E16.8)                                                                 
  0.00000000E+00  0.00000000E+00  0.00000000E+00  0.00000000E+00  0.00000000E+00
  0.00000000E+00  0.00000000E+00  0.00000000E+00  0.00000000E+00  0.00000000E+00
%FLAG LENNARD_JONES_ACOEF                                                       
%FORMAT(5E16.8)                                                                 
  1.02073671E+06  8.61147463E+05  7.24302894E+05  7.18991463E+05  6.09286822E+05
  5.03152404E+05  5.42502534E+05  4.60917758E+05  3.78207390E+05  2.83662575E+05
  8.43969952E+05  7.13691175E+05  5.92438683E+05  4.46121722E+05  6.96551276E+05
  1.00235148E+05  8.67370500E+04  6.80216136E+04  5.02224902E+04  8.12662403E+04
  7.94617769E+03  6.97998263E+04  6.08009173E+04  4.69084694E+04  3.44374471E+04
  5.63013422E+04  5.22955465E+03  3.39005767E+03  2.23577481E+03  2.07791361E+03
  1.36475542E+03  9.46795083E+02  1.71458823E+03  9.47421632E+01  5.24570081E+01
  1.34728399E-01  3.03553352E+02  2.93996564E+02  1.74176419E+02  1.16469347E+02
  2.25372434E+02  8.80612241E+00  4.36660257E+00  2.61760843E-03  1.10360882E-05
  9.27554496E+04  8.01918051E+04  6.30298721E+04  4.65732396E+04  7.52549148E+04
  7.41026906E+03  4.88692384E+03  9.04434904E+01  8.53132435E+00  6.90855956E+03
%FLAG LENNARD_JONES_BCOEF                                                       
%FORMAT(5E16.8)                                                                 
  6.63431737E+02  5.08324538E+02  3.88888730E+02  5.36620538E+02  4.12077831E+02
  4.32634597E+02  4.38146883E+02  3.36894171E+02  3.52573684E+02  2.87011518E+02
  5.90251928E+02  4.52784989E+02  4.76608379E+02  3.88758656E+02  5.24668528E+02
  1.37787728E+02  1.06921681E+02  1.09393126E+02  8.83545880E+01  1.21392023E+02
  2.57122925E+01  1.14981426E+02  8.95196800E+01  9.08431526E+01  7.31636661E+01
  1.01040256E+02  2.08590256E+01  1.67944276E+01  1.71355763E+01  1.37803855E+01
  1.29026271E+01  1.01016461E+01  1.46824710E+01  2.33785449E+00  1.73959275E+00
  7.34107347E-02  5.22789272E+00  4.29183694E+00  3.81654050E+00  2.93355636E+00
  4.40751799E+00  5.90150328E-01  4.15568027E-01  8.47240681E-03  4.55498033E-04
  1.24325688E+02  9.64315361E+01  9.87712192E+01  7.98066064E+01  1.09570372E+02
  2.32899892E+01  1.89134207E+01  2.14252117E+00  5.44840215E-01  2.10929191E+01
%FLAG BONDS_INC_HYDROGEN                                                        
%FORMAT(10I8)                                                                   
       0      69       2       0      72       2       0      75       2       3
      78       4       6      81       2       6      84       2       6      87
       2       9      90       5      12      93       4      12      96       4
      15      99       4      18     102       7      21     105       4      21
     108       4      30     111      11      33     114      11      39     117
       4      39     120       4      45     123       4      45     126       4
      48     129       4      48     132       4      54     135       4      57
     138       2      57     141       2      57     144       2      60     147
       2      60     150       2      60     153       2      63     156      11
      66     159      11
%FLAG BONDS_WITHOUT_HYDROGEN                                                    
%FORMAT(10I8)                                                                   
       0       3       1       3       6       1       3       9       3       9
      12       3      12      15       1      15      18       6      15      21
       1      21      24       8      24      27       9      27      30      10
      27      66      10      30      33      10      33      36      10      36
      39      12      36      63      10      39      42       8      42      45
       8      45      48       1      48      51       8      51      54       8
      54      57       1      54      60       1      63      66      10
%FLAG ANGLES_INC_HYDROGEN                                                       
%FORMAT(10I8)                                                                   
       0       3      78       3       3       0      69       4       3       0
      72       4       3       0      75       4       3       6      81       4
       3       6      84       4       3       6      87       4       3       9
      90       6       6       3      78       3       9       3      78       7
       9      12      93       7       9      12      96       7      12       9
      90       6      12      15      99       3      15      12      93       3
      15      12      96       3      15      18     102       9      15      21
     105       3      15      21     108       3      18      15      99      11
      21      15      99       3      24      21     105      13      24      21
     108      13      27      30     111      16      27      66     159      16
      30      33     114      16      33      30     111      16      36      33
     114      16      36      39     117      19      36      39     120      19
      36      63     156      16      42      39     117      13      42      39
     120      13      42      45     123      13      42      45     126      13
      45      48     129       3      45      48     132       3      48      45
     123       3      48      45     126       3      51      48     129      13
      51      48     132      13      51      54     135      13      54      57
     138       4      54      57     141       4      54      57     144       4
      54      60     147       4      54      60     150       4      54      60
     153       4      57      54     135       3      60      54     135       3
      63      66     159      16      66      63     156      16      69       0
      72      21      69       0      75      21      72       0      75      21
      81       6      84      21      81       6      87      21      84       6
      87      21      93      12      96      22     105      21     108      22
     117      39     120      22     123      45     126      22     129      48
     132      22     138      57     141      21     138      57     144      21
     141      57     144      21     147      60     150      21     147      60
     153      21     150      60     153      21
%FLAG ANGLES_WITHOUT_HYDROGEN                                                   
%FORMAT(10I8)                                                                   
       0       3       6       1       0       3       9       2       3       9
      12       5       6       3       9       2       9      12      15       2
      12      15      18       8      12      15      21       1      15      21
      24      10      18      15      21       8      21      24      27      12
      24      27      30      14      24      27      66      14      27      30
      33      15      27      66      63      15      30      27      66      15
      30      33      36      15      33      36      39      17      33      36
      63      15      36      39      42      18      36      63      66      15
      39      36      63      17      39      42      45      20      42      45
      48      10      45      48      51      10      48      51      54      20
      51      54      57      10      51      54      60      10      57      54
      60       1
%FLAG DIHEDRALS_INC_HYDROGEN                                                    
%FORMAT(10I8)                                                                   
       0       3       6      81       1       0       3       6      84       1
       0       3       6      87       1       0       3       9      90       4
       3       9      12      93       5       3       9      12      96       5
      69       0       3       6       1      72       0       3       6       1
      75       0       3       6       1       6       3       9      90       4
      69       0       3       9       6      72       0       3       9       6
      75       0       3       9       6       9       3       6      81       6
       9       3       6      84       6       9       3       6      87       6
       9      12      15      99       7      12       9       3      78       5
      12      15      18     102       9      12      15      21     105       7
      12      15      21     108       7      15      12       9      90       4
      18      15      12      93      11      18      15     -12      93       9
      18      15      12      96      11      18      15     -12      96       9
      18      15      21     105      11      18      15     -21     105       9
      18      15      21     108      11      18      15     -21     108       9
      21      15      12      93       7      21      15      12      96       7
      21      15      18     102       9      24      21      15      99      11
      24      21     -15      99       9      24      27      30     111      16
      24      27      66     159      16      27      24      21     105      10
      27      24      21     108      10      27      30      33     114      16
      27      66      63     156      16      30      27      66     159      16
      33      36      39     117      13      33      36      39     120      13
      33      36      63     156      16      36      33      30     111      16
      36      63      66     159      16      39      36      33     114      16
      39      36      63     156      16      39      42      45     123      20
      39      42      45     126      20      42      45      48     129      11
      42      45     -48     129       9      42      45      48     132      11
      42      45     -48     132       9      45      42      39     117      20
      45      42      39     120      20      48      51      54     135      20
      51      48      45     123      11      51      48     -45     123       9
      51      48      45     126      11      51      48     -45     126       9
      51      54      57     138      11      51      54     -57     138       9
      51      54      57     141      11      51      54     -57     141       9
      51      54      57     144      11      51      54     -57     144       9
      51      54      60     147      11      51      54     -60     147       9
      51      54      60     150      11      51      54     -60     150       9
      51      54      60     153      11      51      54     -60     153       9
      54      51      48     129      20      54      51      48     132      20
      57      54      60     147       1      57      54      60     150       1
      57      54      60     153       1      60      54      57     138       1
      60      54      57     141       1      60      54      57     144       1
      63      36      33     114      16      63      36      39     117      13
      63      36      39     120      13      66      27      30     111      16
      69       0       3      78       7      72       0       3      78       7
      75       0       3      78       7      78       3       6      81       7
      78       3       6      84       7      78       3       6      87       7
      78       3       9      90      23      90       9      12      93      23
      90       9      12      96      23      93      12      15      99       7
      96      12      15      99       7      99      15      18     102      24
      99      15      21     105       7      99      15      21     108       7
     111      30      33     114      16     123      45      48     129       7
     123      45      48     132       7     126      45      48     129       7
     126      45      48     132       7     135      54      57     138       7
     135      54      57     141       7     135      54      57     144       7
     135      54      60     147       7     135      54      60     150       7
     135      54      60     153       7     156      63      66     159      16
      27      33     -30    -111      25      30      36     -33    -114      25
      36      66     -63    -156      25      27      63     -66    -159      25
%FLAG DIHEDRALS_WITHOUT_HYDROGEN                                                
%FORMAT(10I8)                                                                   
       0       3       9      12       2       0       3      -9      12       3
       3       9      12      15       2       3       9     -12      15       3
       6       3       9      12       2       6       3      -9      12       3
       9      12      15      18       7       9      12      15      21       8
      12      15      21      24       7      15      21      24      27      10
      18      15      21      24      12      18      15     -21      24      13
      18      15     -21      24      14      21      24      27      30      15
      21      24      27      66      15      24      27      30      33      16
      24      27      66      63      16      27      30      33      36      16
      27      66     -63      36      16      30      27      66      63      16
      30      33      36      39      16      30      33     -36      63      16
      33      30      27      66      16      33      36      39      42      13
      33      36     -63      66      16      36      39      42      45      10
      39      36      63      66      16      39      42      45      48      17
      39      42     -45      48      18      39      42     -45      48      19
      42      39      36      63      13      42      45      48      51      21
      42      45     -48      51      22      42      45     -48      51       9
      45      48      51      54      17      45      48     -51      54      18
      45      48     -51      54      19      48      51      54      57      17
      48      51     -54      57      18      48      51     -54      57      19
      48      51      54      60      17      48      51     -54      60      18
      48      51     -54      60      19      30      66     -27     -24      25
      33      63     -36     -39      25
%FLAG EXCLUDED_ATOMS_LIST                                                       
%FORMAT(10I8)                                                                   
       2       3       4       5      24      25      26      27      28      29
      30      31       3       4       5       6      24      25      26      27
      28      29      30      31      32      33       4       5      24      25
      26      27      28      29      30      31       5       6       7       8
      24      25      26      27      28      29      30      31      32      33
      34       6       7       8       9      27      31      32      33      34
      35      36      37       7       8       9      10      31      32      33
      34      35      36      37       8       9      32      33      34      35
      36      37       9      10      11      23      32      33      34      35
      36      37      10      11      12      22      23      34      36      37
      38      54      11      12      13      22      23      36      37      38
      39      53      54      12      13      14      22      23      38      39
      54      13      14      15      22      23      38      39      40      41
      53      14      15      16      22      23      38      39      40      41
      53      54      15      16      17      22      23      39      40      41
      42      43      53      16      17      18      22      40      41      42
      43      44      45      17      18      19      40      41      42      43
      44      45      18      19      20      21      42      43      44      45
      46      19      20      21      42      43      44      45      46      47
      48      49      50      51      52      20      21      44      45      46
      47      48      49      50      51      52      21      46      47      48
      49      50      51      52      46      47      48      49      50      51
      52      23      39      40      41      53      54      38      53      54
      25      26      27      26      27      27      28      29      30      31
      29      30      30       0      32      33      33      34      34      35
      36      37       0      37       0      39       0      41       0      43
      44      45      44      45      45       0      47      48      49      50
      51      52      48      49      49       0      51      52      52       0
      54       0
%FLAG HBOND_ACOEF                                                               
%FORMAT(5E16.8)                                                                 

%FLAG HBOND_BCOEF                                                               
%FORMAT(5E16.8)                                                                 

%FLAG HBCUT                                                                     
%FORMAT(5E16.8)                                                                 

%FLAG AMBER_ATOM_TYPE                                                           
%FORMAT(20a4)                                                                   
c3  c3  c3  n7  c3  c3  oh  c3  os  ca  ca  ca  ca  c3  os  c3  c3  os  c3  c3  
c3  ca  ca  hc  hc  hc  h1  hc  hc  hc  hn  h1  h1  h1  ho  h1  h1  ha  ha  h1  
h1  h1  h1  h1  h1  h1  hc  hc  hc  hc  hc  hc  ha  ha  
%FLAG TREE_CHAIN_CLASSIFICATION                                                 
%FORMAT(20a4)                                                                   
BLA BLA BLA BLA BLA BLA BLA BLA BLA BLA BLA BLA BLA BLA BLA BLA BLA BLA BLA BLA 
BLA BLA BLA BLA BLA BLA BLA BLA BLA BLA BLA BLA BLA BLA BLA BLA BLA BLA BLA BLA 
BLA BLA BLA BLA BLA BLA BLA BLA BLA BLA BLA BLA BLA BLA 
%FLAG JOIN_ARRAY                                                                
%FORMAT(10I8)                                                                   
       0       0       0       0       0       0       0       0       0       0
       0       0       0       0       0       0       0       0       0       0
       0       0       0       0       0       0       0       0       0       0
       0       0       0       0       0       0       0       0       0       0
       0       0       0       0       0       0       0       0       0       0
       0       0       0       0
%FLAG IROTAT                                                                    
%FORMAT(10I8)                                                                   
       0       0       0       0       0       0       0       0       0       0
       0       0       0       0       0       0       0       0       0       0
       0       0       0       0       0       0       0       0       0       0
       0       0       0       0       0       0       0       0       0       0
       0       0       0       0       0       0       0       0       0       0
       0       0       0       0
%FLAG RADIUS_SET                                                                
%FORMAT(1a80)                                                                   
modified Bondi radii (mbondi)                                                   
%FLAG RADII                                                                     
%FORMAT(5E16.8)                                                                 
  1.70000000E+00  1.70000000E+00  1.70000000E+00  1.55000000E+00  1.70000000E+00
  1.70000000E+00  1.50000000E+00  1.70000000E+00  1.50000000E+00  1.70000000E+00
  1.70000000E+00  1.70000000E+00  1.70000000E+00  1.70000000E+00  1.50000000E+00
  1.70000000E+00  1.70000000E+00  1.50000000E+00  1.70000000E+00  1.70000000E+00
  1.70000000E+00  1.70000000E+00  1.70000000E+00  1.30000000E+00  1.30000000E+00
  1.30000000E+00  1.30000000E+00  1.30000000E+00  1.30000000E+00  1.30000000E+00
  1.30000000E+00  1.30000000E+00  1.30000000E+00  1.30000000E+00  8.00000000E-01
  1.30000000E+00  1.30000000E+00  1.30000000E+00  1.30000000E+00  1.30000000E+00
  1.30000000E+00  1.30000000E+00  1.30000000E+00  1.30000000E+00  1.30000000E+00
  1.30000000E+00  1.30000000E+00  1.30000000E+00  1.30000000E+00  1.30000000E+00
  1.30000000E+00  1.30000000E+00  1.30000000E+00  1.30000000E+00
%FLAG SCREEN                                                                    
%FORMAT(5E16.8)                                                                 
  7.20000000E-01  7.20000000E-01  7.20000000E-01  7.90000000E-01  7.20000000E-01
  7.20000000E-01  8.50000000E-01  7.20000000E-01  8.50000000E-01  7.20000000E-01
  7.20000000E-01  7.20000000E-01  7.20000000E-01  7.20000000E-01  8.50000000E-01
  7.20000000E-01  7.20000000E-01  8.50000000E-01  7.20000000E-01  7.20000000E-01
  7.20000000E-01  7.20000000E-01  7.20000000E-01  8.50000000E-01  8.50000000E-01
  8.50000000E-01  8.50000000E-01  8.50000000E-01  8.50000000E-01  8.50000000E-01
  8.50000000E-01  8.50000000E-01  8.50000000E-01  8.50000000E-01  8.50000000E-01
  8.50000000E-01  8.50000000E-01  8.50000000E-01  8.50000000E-01  8.50000000E-01
  8.50000000E-01  8.50000000E-01  8.50000000E-01  8.50000000E-01  8.50000000E-01
  8.50000000E-01  8.50000000E-01  8.50000000E-01  8.50000000E-01  8.50000000E-01
  8.50000000E-01  8.50000000E-01  8.50000000E-01  8.50000000E-01
%FLAG IPOL                                                                      
%FORMAT(1I8)                                                                    
       0
