MOL
    54
  -0.3540000   6.2900000  -5.3250000   0.6180000   5.2070000  -4.8560000
   0.9290000   4.2550000  -6.0110000   0.0690000   4.4030000  -3.7620000
   0.1400000   5.0790000  -2.4600000  -0.6930000   4.3360000  -1.4010000
  -2.0680000   4.3120000  -1.8270000  -0.2050000   2.9030000  -1.1450000
  -1.0310000   2.3670000  -0.0990000  -0.6080000   1.1910000   0.4550000
  -1.1000000   0.9290000   1.7340000  -0.7310000  -0.2350000   2.4110000
   0.1380000  -1.1590000   1.8160000   0.5030000  -2.4300000   2.5490000
   1.8110000  -2.8620000   2.1650000   2.4010000  -3.7770000   3.0940000
   1.6920000  -5.1340000   3.1330000   0.5180000  -5.0350000   3.9470000
  -0.2140000  -6.2610000   4.0410000  -1.1020000  -6.4490000   2.8150000
  -1.0710000  -6.1700000   5.2980000   0.5930000  -0.9060000   0.5160000
   0.2310000   0.2640000  -0.1590000  -1.3260000   5.8680000  -5.6050000
   0.0440000   6.8090000  -6.2020000  -0.5220000   7.0500000  -4.5530000
   1.5600000   5.6750000  -4.5460000   1.6520000   3.4930000  -5.7070000
   0.0280000   3.7450000  -6.3700000   1.3630000   4.7980000  -6.8570000
  -0.9180000   4.1990000  -3.9470000  -0.2580000   6.0960000  -2.5410000
   1.1840000   5.1410000  -2.1300000  -0.6730000   4.9010000  -0.4610000
  -2.5120000   3.6450000  -1.2640000   0.8470000   2.9160000  -0.8370000
  -0.3420000   2.2900000  -2.0420000  -1.7730000   1.6380000   2.2070000
  -1.1210000  -0.4100000   3.4110000  -0.2280000  -3.2020000   2.2860000
   0.4770000  -2.2440000   3.6310000   3.4320000  -3.9280000   2.7540000
   2.4400000  -3.3140000   4.0870000   2.3610000  -5.8740000   3.5850000
   1.4240000  -5.4470000   2.1200000   0.4780000  -7.1030000   4.1500000
  -1.7420000  -5.5710000   2.6630000  -0.5080000  -6.5670000   1.9020000
  -1.7390000  -7.3350000   2.9200000  -1.6480000  -7.0880000   5.4570000
  -1.7660000  -5.3260000   5.2380000  -0.4430000  -5.9990000   6.1780000
   1.2450000  -1.6230000   0.0200000   0.6070000   0.4110000  -1.1650000
