%VERSION  VERSION_STAMP = V0001.000  DATE = 07/11/26  14:16:23                  
%FLAG TITLE                                                                     
%FORMAT(20a4)                                                                   
MOL                                                                             
%FLAG POINTERS                                                                  
%FORMAT(10I8)                                                                   
      85       9      48      40     105      66     217     187       0       0
     543       1      40      66     187      14      30      36      11       0
       0       0       0       0       0       0       0       0      85       0
       0
%FLAG ATOM_NAME                                                                 
%FORMAT(20a4)                                                                   
C1  C2  C3  O1  C4  C5  C6  C7  C8  C9  O2  C10 C11 O3  C12 C13 C14 C15 O4  C16 
C17 C18 O5  C19 C20 C21 O6  C22 O7  C23 C24 C25 C26 C27 C28 C29 C30 H1  H2  H3  
H4  H5  H6  H7  H8  H9  H10 H11 H12 H13 H14 H15 H16 H17 H18 H19 H20 H21 H22 H23 
H24 H25 H26 H27 H28 H29 H30 H31 H32 H33 H34 H35 H36 H37 H38 H39 H40 H41 H42 H43 
H44 H45 H46 H47 H48 
%FLAG CHARGE                                                                    
%FORMAT(5E16.8)                                                                 
 -3.89957220E+00 -3.66632676E+00  2.72605608E+00 -7.84652238E+00  1.98805293E+00
 -1.51973982E+00 -1.92063042E+00  2.65681134E+00 -1.92427488E+00 -1.92427488E+00
 -1.08750686E+01  2.72970054E+00 -2.27960973E+00 -1.10572916E+01 -8.50981410E-01
 -1.35573912E+00 -1.72018512E+00  3.00667950E+00 -1.07839571E+01 -9.36626220E-01
 -4.63210866E+00  1.04650669E+01 -9.71430813E+00 -2.85543441E+00 -1.19173842E+00
  2.09738673E+00 -1.09479578E+01  1.86049683E+00 -1.10208470E+01 -1.24640532E+00
 -5.10224400E-01 -1.78760763E+00 -6.46891650E-01 -1.22818302E+00 -1.28284992E+00
 -4.19112900E-01 -1.60538463E+00  2.07734220E+00  2.07734220E+00  2.42356590E+00
  1.12431591E+00  1.12431591E+00  1.08787131E+00  1.16076051E+00  1.16076051E+00
  8.87426010E-01  8.87426010E-01  8.11493686E-01  8.11493686E-01  8.11493686E-01
  8.11493686E-01  8.11493686E-01  8.11493686E-01  7.23425310E+00  8.81357984E-01
  8.81357984E-01  8.81357984E-01  7.47114300E+00  1.32476121E+00  9.51204060E-01
  9.51204060E-01  9.60315210E-01  9.60315210E-01  7.30714230E+00  2.75156730E+00
  1.68920721E+00  1.22453856E+00  1.22453856E+00  6.14091510E-01  7.54403220E+00
  8.69203710E-01  7.36180920E+00  1.15164936E+00  1.15164936E+00  7.41647610E-01
  7.41647610E-01  7.41647610E-01  1.43409501E+00  8.69203710E-01  8.69203710E-01
  9.96759810E-01  9.96759810E-01  8.14536810E-01  8.14536810E-01  8.14536810E-01
%FLAG ATOMIC_NUMBER                                                             
%FORMAT(10I8)                                                                   
       6       6       6       8       6       6       6       6       6       6
       8       6       6       8       6       6       6       6       8       6
       6       6       8       6       6       6       8       6       8       6
       6       6       6       6       6       6       6       1       1       1
       1       1       1       1       1       1       1       1       1       1
       1       1       1       1       1       1       1       1       1       1
       1       1       1       1       1       1       1       1       1       1
       1       1       1       1       1       1       1       1       1       1
       1       1       1       1       1
%FLAG MASS                                                                      
%FORMAT(5E16.8)                                                                 
  1.20100000E+01  1.20100000E+01  1.20100000E+01  1.60000000E+01  1.20100000E+01
  1.20100000E+01  1.20100000E+01  1.20100000E+01  1.20100000E+01  1.20100000E+01
  1.60000000E+01  1.20100000E+01  1.20100000E+01  1.60000000E+01  1.20100000E+01
  1.20100000E+01  1.20100000E+01  1.20100000E+01  1.60000000E+01  1.20100000E+01
  1.20100000E+01  1.20100000E+01  1.60000000E+01  1.20100000E+01  1.20100000E+01
  1.20100000E+01  1.60000000E+01  1.20100000E+01  1.60000000E+01  1.20100000E+01
  1.20100000E+01  1.20100000E+01  1.20100000E+01  1.20100000E+01  1.20100000E+01
  1.20100000E+01  1.20100000E+01  1.00800000E+00  1.00800000E+00  1.00800000E+00
  1.00800000E+00  1.00800000E+00  1.00800000E+00  1.00800000E+00  1.00800000E+00
  1.00800000E+00  1.00800000E+00  1.00800000E+00  1.00800000E+00  1.00800000E+00
  1.00800000E+00  1.00800000E+00  1.00800000E+00  1.00800000E+00  1.00800000E+00
  1.00800000E+00  1.00800000E+00  1.00800000E+00  1.00800000E+00  1.00800000E+00
  1.00800000E+00  1.00800000E+00  1.00800000E+00  1.00800000E+00  1.00800000E+00
  1.00800000E+00  1.00800000E+00  1.00800000E+00  1.00800000E+00  1.00800000E+00
  1.00800000E+00  1.00800000E+00  1.00800000E+00  1.00800000E+00  1.00800000E+00
  1.00800000E+00  1.00800000E+00  1.00800000E+00  1.00800000E+00  1.00800000E+00
  1.00800000E+00  1.00800000E+00  1.00800000E+00  1.00800000E+00  1.00800000E+00
%FLAG ATOM_TYPE_INDEX                                                           
%FORMAT(10I8)                                                                   
       1       1       2       3       2       2       2       2       2       2
       4       2       2       4       2       2       2       2       4       1
       1       1       5       2       2       2       4       2       4       2
       2       2       2       2       2       2       2       6       6       6
       7       7       7       8       8       8       8       8       8       8
       8       8       8       9       8       8       8       9       8       8
       8       8       8       9       6       8       8       8       7       9
       7       9       8       8       8       8       8       8       8       8
       8       8       8       8       8
%FLAG NUMBER_EXCLUDED_ATOMS                                                     
%FORMAT(10I8)                                                                   
       8       8      10      13      21      14      17      14      11      10
       9      19      10       9      24      12      14      23       9      19
      11      12       5      20      14      14       8      13       7      14
      16       9      15       8      11      14       6       2       1       2
       1       1       2       3       2       1       1       2       1       1
       2       1       1       1       2       1       1       1       2       3
       2       1       1       1       1       2       2       1       2       1
       3       1       1       1       2       1       1       2       3       2
       1       1       2       1       1
%FLAG NONBONDED_PARM_INDEX                                                      
%FORMAT(10I8)                                                                   
       1       2       4       7      11      16      22      29      37       2
       3       5       8      12      17      23      30      38       4       5
       6       9      13      18      24      31      39       7       8       9
      10      14      19      25      32      40      11      12      13      14
      15      20      26      33      41      16      17      18      19      20
      21      27      34      42      22      23      24      25      26      27
      28      35      43      29      30      31      32      33      34      35
      36      44      37      38      39      40      41      42      43      44
      45
%FLAG RESIDUE_LABEL                                                             
%FORMAT(20a4)                                                                   
MOL 
%FLAG RESIDUE_POINTER                                                           
%FORMAT(10I8)                                                                   
       1
%FLAG BOND_FORCE_CONSTANT                                                       
%FORMAT(5E16.8)                                                                 
  4.81800000E+02  3.92200000E+02  2.55600000E+02  2.84800000E+02  3.75900000E+02
  2.32500000E+02  3.75900000E+02  2.93400000E+02  5.63500000E+02  4.60500000E+02
  2.80400000E+02  3.91400000E+02  6.52600000E+02  2.43200000E+02
%FLAG BOND_EQUIL_VALUE                                                          
%FORMAT(5E16.8)                                                                 
  1.33400000E+00  1.08800000E+00  1.51000000E+00  1.43200000E+00  1.09700000E+00
  1.53800000E+00  1.09700000E+00  1.42300000E+00  9.73000000E-01  1.34600000E+00
  1.48200000E+00  1.08800000E+00  1.21800000E+00  1.52400000E+00
%FLAG ANGLE_FORCE_CONSTANT                                                      
%FORMAT(5E16.8)                                                                 
  6.61000000E+01  5.04000000E+01  8.60000000E+01  4.76000000E+01  4.64000000E+01
  6.63000000E+01  6.24000000E+01  8.53000000E+01  6.49000000E+01  4.68000000E+01
  8.46000000E+01  4.69000000E+01  4.90000000E+01  6.55000000E+01  6.61000000E+01
  6.49000000E+01  8.55000000E+01  6.76000000E+01  5.01000000E+01  4.75000000E+01
  8.63000000E+01  6.49000000E+01  4.70000000E+01  6.53000000E+01  4.74000000E+01
  8.46000000E+01  6.25000000E+01  3.77000000E+01  3.88000000E+01  3.90000000E+01
%FLAG ANGLE_EQUIL_VALUE                                                         
%FORMAT(5E16.8)                                                                 
  2.15775148E+00  2.10190092E+00  1.89473025E+00  1.91916487E+00  2.01899774E+00
  1.96314718E+00  1.91602327E+00  1.88443280E+00  1.94621748E+00  1.91637234E+00
  1.92317913E+00  1.91218355E+00  1.87204096E+00  1.94709015E+00  2.14937390E+00
  2.01847415E+00  1.92597166E+00  2.10172639E+00  2.09334880E+00  1.92614619E+00
  2.15024656E+00  2.03226225E+00  2.03261132E+00  1.93801443E+00  1.89839544E+00
  2.15024656E+00  1.92440086E+00  2.04029077E+00  1.89298492E+00  1.87762601E+00
%FLAG DIHEDRAL_FORCE_CONSTANT                                                   
%FORMAT(5E16.8)                                                                 
  0.00000000E+00  3.83333333E-01  6.65000000E+00  0.00000000E+00  1.60000000E-01
  2.40000000E-01  3.37000000E-01  1.55555556E-01  2.50000000E-01  0.00000000E+00
  2.00000000E-02  1.01000000E+00  1.10000000E-01  2.90000000E-01  1.30000000E-01
  8.00000000E-02  2.10000000E-01  5.10000000E-01  1.80000000E-01  3.10000000E-01
  1.66666667E-01  2.17500000E+00  2.97000000E+00  0.00000000E+00  1.00000000E-01
  7.40000000E-01  2.70000000E-01  5.50000000E-01  8.30000000E-01  4.00000000E-02
  1.13000000E+00  9.00000000E-01  1.20000000E-01  1.13000000E-01  1.10000000E+00
  1.05000000E+01
%FLAG DIHEDRAL_PERIODICITY                                                      
%FORMAT(5E16.8)                                                                 
  2.00000000E+00  3.00000000E+00  2.00000000E+00  1.00000000E+00  2.00000000E+00
  3.00000000E+00  3.00000000E+00  3.00000000E+00  1.00000000E+00  3.00000000E+00
  1.00000000E+00  3.00000000E+00  1.00000000E+00  2.00000000E+00  3.00000000E+00
  3.00000000E+00  3.00000000E+00  1.00000000E+00  3.00000000E+00  2.00000000E+00
  3.00000000E+00  2.00000000E+00  2.00000000E+00  2.00000000E+00  3.00000000E+00
  1.00000000E+00  2.00000000E+00  3.00000000E+00  1.00000000E+00  3.00000000E+00
  2.00000000E+00  3.00000000E+00  3.00000000E+00  3.00000000E+00  2.00000000E+00
  2.00000000E+00
%FLAG DIHEDRAL_PHASE                                                            
%FORMAT(5E16.8)                                                                 
  0.00000000E+00  0.00000000E+00  3.14159400E+00  0.00000000E+00  0.00000000E+00
  0.00000000E+00  0.00000000E+00  0.00000000E+00  0.00000000E+00  0.00000000E+00
  3.14159400E+00  0.00000000E+00  0.00000000E+00  3.14159400E+00  0.00000000E+00
  0.00000000E+00  0.00000000E+00  0.00000000E+00  0.00000000E+00  0.00000000E+00
  0.00000000E+00  3.14159400E+00  0.00000000E+00  3.14159400E+00  0.00000000E+00
  0.00000000E+00  3.14159400E+00  3.14159400E+00  0.00000000E+00  3.14159400E+00
  0.00000000E+00  0.00000000E+00  0.00000000E+00  0.00000000E+00  3.14159400E+00
  3.14159400E+00
%FLAG SCEE_SCALE_FACTOR                                                         
%FORMAT(5E16.8)                                                                 
  1.20000000E+00  1.20000000E+00  1.20000000E+00  1.20000000E+00  1.20000000E+00
  1.20000000E+00  1.20000000E+00  1.20000000E+00  1.20000000E+00  1.20000000E+00
  1.20000000E+00  1.20000000E+00  1.20000000E+00  1.20000000E+00  1.20000000E+00
  1.20000000E+00  1.20000000E+00  1.20000000E+00  1.20000000E+00  1.20000000E+00
  1.20000000E+00  1.20000000E+00  1.20000000E+00  1.20000000E+00  1.20000000E+00
  1.20000000E+00  1.20000000E+00  1.20000000E+00  1.20000000E+00  1.20000000E+00
  1.20000000E+00  1.20000000E+00  1.20000000E+00  1.20000000E+00  0.00000000E+00
  0.00000000E+00
%FLAG SCNB_SCALE_FACTOR                                                         
%FORMAT(5E16.8)                                                                 
  2.00000000E+00  2.00000000E+00  2.00000000E+00  2.00000000E+00  2.00000000E+00
  2.00000000E+00  2.00000000E+00  2.00000000E+00  2.00000000E+00  2.00000000E+00
  2.00000000E+00  2.00000000E+00  2.00000000E+00  2.00000000E+00  2.00000000E+00
  2.00000000E+00  2.00000000E+00  2.00000000E+00  2.00000000E+00  2.00000000E+00
  2.00000000E+00  2.00000000E+00  2.00000000E+00  2.00000000E+00  2.00000000E+00
  2.00000000E+00  2.00000000E+00  2.00000000E+00  2.00000000E+00  2.00000000E+00
  2.00000000E+00  2.00000000E+00  2.00000000E+00  2.00000000E+00  0.00000000E+00
  0.00000000E+00
%FLAG SOLTY                                                                     
%FORMAT(5E16.8)                                                                 
  0.00000000E+00  0.00000000E+00  0.00000000E+00  0.00000000E+00  0.00000000E+00
  0.00000000E+00  0.00000000E+00  0.00000000E+00  0.00000000E+00  0.00000000E+00
  0.00000000E+00
%FLAG LENNARD_JONES_ACOEF                                                       
%FORMAT(5E16.8)                                                                 
  6.96551276E+05  8.43969952E+05  1.02073671E+06  4.46121722E+05  5.42502534E+05
  2.83662575E+05  5.92438683E+05  7.18991463E+05  3.78207390E+05  5.03152404E+05
  5.17507491E+05  6.30925504E+05  3.27367585E+05  4.37717034E+05  3.76435470E+05
  7.52549148E+04  9.27554496E+04  4.65732396E+04  6.30298721E+04  5.27277400E+04
  6.90855956E+03  5.63013422E+04  6.97998263E+04  3.44374471E+04  4.69084694E+04
  3.86646725E+04  4.88692384E+03  3.39005767E+03  8.12662403E+04  1.00235148E+05
  5.02224902E+04  6.80216136E+04  5.68021765E+04  7.41026906E+03  5.22955465E+03
  7.94617769E+03  2.25372434E+02  3.03553352E+02  1.16469347E+02  1.74176419E+02
  1.15813907E+02  8.53132435E+00  4.36660257E+00  8.80612241E+00  1.10360882E-05
%FLAG LENNARD_JONES_BCOEF                                                       
%FORMAT(5E16.8)                                                                 
  5.24668528E+02  5.90251928E+02  6.63431737E+02  3.88758656E+02  4.38146883E+02
  2.87011518E+02  4.76608379E+02  5.36620538E+02  3.52573684E+02  4.32634597E+02
  4.98871431E+02  5.62969425E+02  3.67361018E+02  4.51916854E+02  4.69350655E+02
  1.09570372E+02  1.24325688E+02  7.98066064E+01  9.87712192E+01  1.01173582E+02
  2.10929191E+01  1.01040256E+02  1.14981426E+02  7.31636661E+01  9.08431526E+01
  9.23664132E+01  1.89134207E+01  1.67944276E+01  1.21392023E+02  1.37787728E+02
  8.83545880E+01  1.09393126E+02  1.11953944E+02  2.32899892E+01  2.08590256E+01
  2.57122925E+01  4.40751799E+00  5.22789272E+00  2.93355636E+00  3.81654050E+00
  3.48534600E+00  5.44840215E-01  4.15568027E-01  5.90150328E-01  4.55498033E-04
%FLAG BONDS_INC_HYDROGEN                                                        
%FORMAT(10I8)                                                                   
       0     111       2       0     114       2       3     117       2       6
     120       5       6     123       5      12     126       5      15     129
       7      15     132       7      18     135       7      18     138       7
      24     141       7      24     144       7      24     147       7      27
     150       7      27     153       7      27     156       7      30     159
       9      36     162       7      36     165       7      36     168       7
      39     171       9      42     174       7      45     177       7      45
     180       7      48     183       7      48     186       7      54     189
       9      60     192      12      69     195       7      72     198       7
      72     201       7      75     204       5      78     207       9      81
     210       5      84     213       9      87     216       7      87     219
       7      93     222       7      93     225       7      93     228       7
      96     231       7      99     234       7      99     237       7     102
     240       7     102     243       7     108     246       7     108     249
       7     108     252       7
%FLAG BONDS_WITHOUT_HYDROGEN                                                    
%FORMAT(10I8)                                                                   
       0       3       1       3       6       3       6       9       4       9
      12       4      12      15       6      12      33       6      15      18
       6      18      21       6      21      24       6      21      27       6
      21      30       8      33      36       6      33      39       8      33
      42       6      42      45       6      42     105       6      45      48
       6      48      51       6      51      54       8      51      57       3
      51     105       6      57      60      10      57      96       3      60
      63      11      63      66      13      63      69      14      69      72
       6      69      90       6      72      75       6      75      78       8
      75      81       6      81      84       8      81      87       6      87
      90       6      90      93       6      90      96       6      96      99
       6      99     102       6     102     105       6     105     108       6
%FLAG ANGLES_INC_HYDROGEN                                                       
%FORMAT(10I8)                                                                   
       0       3     117       2       3       0     111       2       3       0
     114       2       3       6     120       4       3       6     123       4
       6       3     117       5       9       6     120       7       9       6
     123       7       9      12     126       7      12      15     129      10
      12      15     132      10      15      12     126      12      15      18
     135      10      15      18     138      10      18      15     129      10
      18      15     132      10      21      18     135      10      21      18
     138      10      21      24     141      10      21      24     144      10
      21      24     147      10      21      27     150      10      21      27
     153      10      21      27     156      10      21      30     159      13
      33      12     126      12      33      36     162      10      33      36
     165      10      33      36     168      10      33      39     171      13
      33      42     174      10      42      45     177      10      42      45
     180      10      45      42     174      10      45      48     183      10
      45      48     186      10      48      45     177      10      48      45
     180      10      51      48     183      10      51      48     186      10
      51      54     189      13      57      60     192      19      57      96
     231      20      63      60     192      23      63      69     195      25
      69      72     198      10      69      72     201      10      72      69
     195      10      72      75     204      12      75      72     198      10
      75      72     201      10      75      78     207      13      75      81
     210      12      78      75     204      27      81      75     204      12
      81      84     213      13      81      87     216      10      81      87
     219      10      84      81     210      27      87      81     210      12
      90      87     216      10      90      87     219      10      90      93
     222      10      90      93     225      10      90      93     228      10
      90      96     231      10      90      69     195      10      96      99
     234      10      96      99     237      10      99      96     231      10
      99     102     240      10      99     102     243      10     102      99
     234      10     102      99     237      10     105     102     240      10
     105     102     243      10     105     108     246      10     105     108
     249      10     105     108     252      10     105      42     174      10
     111       0     114      28     120       6     123      29     129      15
     132      30     135      18     138      30     141      24     144      30
     141      24     147      30     144      24     147      30     150      27
     153      30     150      27     156      30     153      27     156      30
     162      36     165      30     162      36     168      30     165      36
     168      30     177      45     180      30     183      48     186      30
     198      72     201      30     216      87     219      30     222      93
     225      30     222      93     228      30     225      93     228      30
     234      99     237      30     240     102     243      30     246     108
     249      30     246     108     252      30     249     108     252      30
%FLAG ANGLES_WITHOUT_HYDROGEN                                                   
%FORMAT(10I8)                                                                   
       0       3       6       1       3       6       9       3       6       9
      12       6       9      12      15       8       9      12      33       8
      12      15      18       9      12      33      36       9      12      33
      39      11      12      33      42       9      15      12      33       9
      15      18      21       9      18      21      24       9      18      21
      27       9      18      21      30      11      24      21      27       9
      24      21      30      11      27      21      30      11      33      42
      45       9      33      42     105       9      36      33      39      11
      36      33      42       9      39      33      42      11      42      45
      48       9      42     105     102       9      42     105     108       9
      42     105      51       9      45      42     105       9      45      48
      51       9      48      51      54      11      48      51      57      14
      48      51     105       9      51      57      60      15      51      57
      96      16      51     105     102       9      51     105     108       9
      54      51      57      17      54      51     105      11      57      51
     105      14      57      60      63      18      57      96      90      14
      57      96      99      14      60      57      96      15      60      63
      66      21      60      63      69      22      63      69      72      24
      63      69      90      24      66      63      69      26      69      72
      75       9      69      90      87       9      69      90      93       9
      69      90      96       9      72      69      90       9      72      75
      78      11      72      75      81       9      75      81      84      11
      75      81      87       9      78      75      81      11      81      87
      90       9      84      81      87      11      87      90      93       9
      87      90      96       9      90      96      99       9      93      90
      96       9      96      99     102       9      99     102     105       9
     102     105     108       9
%FLAG DIHEDRALS_INC_HYDROGEN                                                    
%FORMAT(10I8)                                                                   
       0       3       6     120       1       0       3       6     123       1
     111       0       3       6       3     114       0       3       6       3
       6       9      12     126       7       9       6       3     117       1
       9      12      15     129       9       9      12     -15     129      10
       9      12      15     132       9       9      12     -15     132      10
      12       9       6     120       7      12       9       6     123       7
      12      15      18     135      16      12      15      18     138      16
      12      33      36     162      16      12      33      36     165      16
      12      33      36     168      16      12      33      39     171      10
      12      33      42     174      16      18      15      12     126       8
      18      21      24     141      16      18      21      24     144      16
      18      21      24     147      16      18      21      27     150      16
      18      21      27     153      16      18      21      27     156      16
      18      21      30     159      10      21      18      15     129      16
      21      18      15     132      16      24      21      18     135      16
      24      21      18     138      16      24      21      27     150      16
      24      21      27     153      16      24      21      27     156      16
      24      21      30     159      10      27      21      18     135      16
      27      21      18     138      16      27      21      24     141      16
      27      21      24     144      16      27      21      24     147      16
      27      21      30     159      10      30      21      18     135      18
      30      21     -18     135      19      30      21      18     138      18
      30      21     -18     138      19      30      21      24     141      18
      30      21     -24     141      19      30      21      24     144      18
      30      21     -24     144      19      30      21      24     147      18
      30      21     -24     147      19      30      21      27     150      18
      30      21     -27     150      19      30      21      27     153      18
      30      21     -27     153      19      30      21      27     156      18
      30      21     -27     156      19      33      12      15     129      16
      33      12      15     132      16      33      42      45     177      16
      33      42      45     180      16      36      33      12     126       8
      36      33      39     171      10      36      33      42     174      16
      39      33      12     126       9      39      33     -12     126      10
      39      33      36     162      18      39      33     -36     162      19
      39      33      36     165      18      39      33     -36     165      19
      39      33      36     168      18      39      33     -36     168      19
      39      33      42     174      18      39      33     -42     174      19
      42      33      12     126       8      42      33      36     162      16
      42      33      36     165      16      42      33      36     168      16
      42      33      39     171      10      42      45      48     183      16
      42      45      48     186      16      42     105     102     240      16
      42     105     102     243      16      42     105     108     246      16
      42     105     108     249      16      42     105     108     252      16
      48      45      42     174      16      48      51      54     189      10
      51      48      45     177      16      51      48      45     180      16
      51      57      60     192       3      51      57      96     231      20
      51     105     102     240      16      51     105     102     243      16
      51     105     108     246      16      51     105     108     249      16
      51     105     108     252      16      51     105      42     174      16
      54      51      48     183      18      54      51     -48     183      19
      54      51      48     186      18      54      51     -48     186      19
      57      51      48     183       8      57      51      48     186       8
      57      51      54     189      21      57      96      99     234       8
      57      96      99     237       8      60      57      96     231       1
      60      63      69     195      24      63      69      72     198       8
      63      69      72     201       8      66      63      60     192      22
      66      63      69     195      29      66      63     -69     195      30
      69      63      60     192      22      69      72      75     204       8
      69      90      87     216      16      69      90      87     219      16
      69      90      93     222      16      69      90      93     225      16
      69      90      93     228      16      69      90      96     231      16
      72      75      78     207      10      72      75      81     210       8
      75      72      69     195      16      75      81      84     213      10
      75      81      87     216      16      75      81      87     219      16
      78      75      72     198      18      78      75     -72     198      19
      78      75      72     201      18      78      75     -72     201      19
      78      75      81     210       9      78      75     -81     210      10
      81      75      72     198      16      81      75      72     201      16
      81      75      78     207      10      84      81      75     204       9
      84      81     -75     204      10      84      81      87     216      18
      84      81     -87     216      19      84      81      87     219      18
      84      81     -87     219      19      87      81      75     204       8
      87      81      84     213      10      87      90      93     222      16
      87      90      93     225      16      87      90      93     228      16
      87      90      96     231      16      87      90      69     195      16
      90      87      81     210       8      90      96      99     234      16
      90      96      99     237      16      90      69      72     198      16
      90      69      72     201      16      93      90      87     216      16
      93      90      87     219      16      93      90      96     231      16
      93      90      69     195      16      96      90      87     216      16
      96      90      87     219      16      96      90      93     222      16
      96      90      93     225      16      96      90      93     228      16
      96      90      69     195      16      96      99     102     240      16
      96      99     102     243      16      96      57      60     192       3
     102      99      96     231      16     102     105     108     246      16
     102     105     108     249      16     102     105     108     252      16
     102     105      42     174      16     105     102      99     234      16
     105     102      99     237      16     105      42      45     177      16
     105      42      45     180      16     105      51      48     183      16
     105      51      48     186      16     105      51      54     189      10
     108     105     102     240      16     108     105     102     243      16
     108     105      42     174      16     111       0       3     117       3
     114       0       3     117       3     117       3       6     120       1
     117       3       6     123       1     126      12      15     129       8
     126      12      15     132       8     129      15      18     135      33
     129      15      18     138      33     132      15      18     135      33
     132      15      18     138      33     174      42      45     177      33
     174      42      45     180      33     177      45      48     183      33
     177      45      48     186      33     180      45      48     183      33
     180      45      48     186      33     195      69      72     198      33
     195      69      72     201      33     198      72      75     204       8
     201      72      75     204       8     204      75      78     207      34
     204      75      81     210       8     210      81      84     213      34
     210      81      87     216       8     210      81      87     219       8
     231      96      99     234      33     231      96      99     237      33
     234      99     102     240      33     234      99     102     243      33
     237      99     102     240      33     237      99     102     243      33
     114       0    -111      -3      35       0       6      -3    -117      35
      63      57     -60    -192      35
%FLAG DIHEDRALS_WITHOUT_HYDROGEN                                                
%FORMAT(10I8)                                                                   
       0       3       6       9       1       3       6       9      12       2
       6       9      12      15       4       6       9     -12      15       5
       6       9     -12      15       6       6       9      12      33       4
       6       9     -12      33       5       6       9     -12      33       6
       9      12      15      18       8       9      12      33      36       8
       9      12      33      39      11       9      12     -33      39       1
       9      12     -33      39      12       9      12      33      42       8
      12      15      18      21      13      12      15     -18      21      14
      12      15     -18      21      15      12      33      42      45      13
      12      33     -42      45      14      12      33     -42      45      15
      12      33      42     105      13      12      33     -42     105      14
      12      33     -42     105      15      15      12      33      36      13
      15      12     -33      36      14      15      12     -33      36      15
      15      12      33      39      17      15      12      33      42      13
      15      12     -33      42      14      15      12     -33      42      15
      15      18      21      24      13      15      18     -21      24      14
      15      18     -21      24      15      15      18      21      27      13
      15      18     -21      27      14      15      18     -21      27      15
      15      18      21      30      17      18      15      12      33      13
      18      15     -12      33      14      18      15     -12      33      15
      33      42      45      48      13      33      42     -45      48      14
      33      42     -45      48      15      33      42     105     102      13
      33      42    -105     102      14      33      42    -105     102      15
      33      42     105     108      13      33      42    -105     108      14
      33      42    -105     108      15      33      42     105      51      13
      33      42    -105      51      14      33      42    -105      51      15
      36      33      42      45      13      36      33     -42      45      14
      36      33     -42      45      15      36      33      42     105      13
      36      33     -42     105      14      36      33     -42     105      15
      39      33      42      45      17      39      33      42     105      17
      42      45     -48      51      13      42      45     -48      51      14
      42      45     -48      51      15      42     105     102      99      13
      42     105    -102      99      14      42     105    -102      99      15
      42     105     -51      48      13      42     105     -51      48      14
      42     105     -51      48      15      42     105      51      54      17
      42     105      51      57       8      45      42     105     102      13
      45      42    -105     102      14      45      42    -105     102      15
      45      42     105     108      13      45      42    -105     108      14
      45      42    -105     108      15      45      42    -105      51      13
      45      42    -105      51      14      45      42    -105      51      15
      45      48      51      54      17      45      48      51      57       8
      45      48     -51     105      13      45      48     -51     105      14
      45      48     -51     105      15      48      45     -42     105      13
      48      45     -42     105      14      48      45     -42     105      15
      48      51      57      60       1      48      51      57      96       1
      48      51     105     102      13      48      51    -105     102      14
      48      51    -105     102      15      48      51     105     108      13
      48      51    -105     108      14      48      51    -105     108      15
      51      57      60      63       3      51      57      96      90       1
      51      57      96      99       1      51     105    -102      99      13
      51     105    -102      99      14      51     105    -102      99      15
      54      51      57      60       1      54      51      57      96       1
      54      51     105     102      17      54      51     105     108      17
      57      51     105     102       8      57      51     105     108       8
      57      60      63      66      22      57      60      63      69      23
      57      96      90      87       8      57      96      90      93       8
      57      96     -90      69       8      57      96     -99     102       8
      60      57      51     105       1      60      57      96      90       1
      60      57      96      99       1      60      63      69      72      24
      60      63     -69      90      24      63      60      57      96       3
      63      69      72      75      25      63      69      90      87      25
      63      69      90      93      25      63      69     -90      96      25
      66      63      69      72      26      66      63     -69      72      27
      66      63     -69      72      28      66      63      69      90      26
      66      63     -69      90      27      66      63     -69      90      28
      69      72      75      78      17      69      72      75      81      13
      69      72     -75      81      14      69      72     -75      81      15
      69      90     -87      81      13      69      90     -87      81      14
      69      90     -87      81      15      69      90      96      99      13
      69      90     -96      99      14      69      90     -96      99      15
      72      69      90      87      13      72      69     -90      87      14
      72      69     -90      87      15      72      69      90      93      13
      72      69     -90      93      14      72      69     -90      93      15
      72      69      90      96      13      72      69     -90      96      14
      72      69     -90      96      15      72      75      81      84      17
      72      75     -81      87      13      72      75     -81      87      14
      72      75     -81      87      15      75      72      69      90      13
      75      72     -69      90      14      75      72     -69      90      15
      75      81     -87      90      13      75      81     -87      90      14
      75      81     -87      90      15      78      75      81      84      31
      78      75     -81      84      32      78      75      81      87      17
      81      87      90      93      13      81      87     -90      93      14
      81      87     -90      93      15      81      87      90      96      13
      81      87     -90      96      14      81      87     -90      96      15
      84      81      87      90      17      87      90      96      99      13
      87      90     -96      99      14      87      90     -96      99      15
      90      96      99     102      13      90      96     -99     102      14
      90      96     -99     102      15      93      90      96      99      13
      93      90     -96      99      14      93      90     -96      99      15
      96      99     102     105      13      96      99    -102     105      14
      96      99    -102     105      15      96      57     -51     105       1
      99     102     105     108      13      99     102    -105     108      14
      99     102    -105     108      15      51      96     -57     -60      35
      69      60     -63     -66      36
%FLAG EXCLUDED_ATOMS_LIST                                                       
%FORMAT(10I8)                                                                   
       2       3       4      38      39      40      41      42       3       4
       5      38      39      40      41      42       4       5       6      12
      38      39      40      41      42      43       5       6       7      12
      13      14      15      40      41      42      43      44      45       6
       7       8      12      13      14      15      16      36      41      42
      43      44      45      46      47      55      56      57      58      59
       7       8       9      10      11      12      13      14      15      43
      44      45      46      47       8       9      10      11      12      43
      44      45      46      47      48      49      50      51      52      53
      54       9      10      11      44      45      46      47      48      49
      50      51      52      53      54      10      11      46      47      48
      49      50      51      52      53      54      11      46      47      48
      49      50      51      52      53      54      46      47      48      49
      50      51      52      53      54      13      14      15      16      17
      18      35      36      37      43      44      45      55      56      57
      58      59      60      61      14      15      16      36      43      55
      56      57      58      59      15      16      36      43      55      56
      57      58      59      16      17      18      19      20      34      35
      36      37      43      55      56      57      58      59      60      61
      62      63      81      82      83      84      85      17      18      19
      20      35      36      37      59      60      61      62      63      18
      19      20      21      33      35      36      37      59      60      61
      62      63      64      19      20      21      22      31      33      34
      35      36      37      59      60      61      62      63      64      65
      78      81      82      83      84      85      20      21      33      35
      36      37      62      63      64      21      22      23      24      30
      31      32      33      34      35      36      37      62      63      64
      65      78      79      80      22      23      24      25      31      33
      34      36      65      66      78      23      24      25      26      30
      31      32      33      65      66      67      68      24      25      31
      65      66      25      26      27      28      30      31      32      33
      34      65      66      67      68      69      73      74      75      76
      77      78      26      27      28      29      30      31      32      33
      66      67      68      69      70      71      27      28      29      30
      31      66      67      68      69      70      71      72      73      74
      28      29      30      67      68      69      70      71      29      30
      31      32      33      67      68      69      70      71      72      73
      74      30      31      69      71      72      73      74      31      32
      33      34      66      69      71      72      73      74      75      76
      77      78      32      33      34      35      66      67      68      71
      73      74      75      76      77      78      79      80      33      34
      66      73      74      75      76      77      78      34      35      36
      65      66      73      74      75      76      77      78      79      80
      81      82      35      36      37      78      79      80      81      82
      36      37      59      78      79      80      81      82      83      84
      85      37      59      60      61      62      63      64      79      80
      81      82      83      84      85      59      81      82      83      84
      85      39      40      40      41      42      42       0      44      45
      45      46      47      46      47      47       0      49      50      50
       0      52      53      53       0       0      56      57      57       0
       0      60      61      61      62      63      62      63      63       0
       0       0      67      68      68      69      69      70      71       0
      72      73      74       0      74       0      76      77      77       0
      79      80      80      81      82      81      82      82       0      84
      85      85       0
%FLAG HBOND_ACOEF                                                               
%FORMAT(5E16.8)                                                                 

%FLAG HBOND_BCOEF                                                               
%FORMAT(5E16.8)                                                                 

%FLAG HBCUT                                                                     
%FORMAT(5E16.8)                                                                 

%FLAG AMBER_ATOM_TYPE                                                           
%FORMAT(20a4)                                                                   
c2  c2  c3  os  c3  c3  c3  c3  c3  c3  oh  c3  c3  oh  c3  c3  c3  c3  oh  c2  
ce  c   o   c3  c3  c3  oh  c3  oh  c3  c3  c3  c3  c3  c3  c3  c3  ha  ha  ha  
h1  h1  h1  hc  hc  hc  hc  hc  hc  hc  hc  hc  hc  ho  hc  hc  hc  ho  hc  hc  
hc  hc  hc  ho  ha  hc  hc  hc  h1  ho  h1  ho  hc  hc  hc  hc  hc  hc  hc  hc  
hc  hc  hc  hc  hc  
%FLAG TREE_CHAIN_CLASSIFICATION                                                 
%FORMAT(20a4)                                                                   
BLA BLA BLA BLA BLA BLA BLA BLA BLA BLA BLA BLA BLA BLA BLA BLA BLA BLA BLA BLA 
BLA BLA BLA BLA BLA BLA BLA BLA BLA BLA BLA BLA BLA BLA BLA BLA BLA BLA BLA BLA 
BLA BLA BLA BLA BLA BLA BLA BLA BLA BLA BLA BLA BLA BLA BLA BLA BLA BLA BLA BLA 
BLA BLA BLA BLA BLA BLA BLA BLA BLA BLA BLA BLA BLA BLA BLA BLA BLA BLA BLA BLA 
BLA BLA BLA BLA BLA 
%FLAG JOIN_ARRAY                                                                
%FORMAT(10I8)                                                                   
       0       0       0       0       0       0       0       0       0       0
       0       0       0       0       0       0       0       0       0       0
       0       0       0       0       0       0       0       0       0       0
       0       0       0       0       0       0       0       0       0       0
       0       0       0       0       0       0       0       0       0       0
       0       0       0       0       0       0       0       0       0       0
       0       0       0       0       0       0       0       0       0       0
       0       0       0       0       0       0       0       0       0       0
       0       0       0       0       0
%FLAG IROTAT                                                                    
%FORMAT(10I8)                                                                   
       0       0       0       0       0       0       0       0       0       0
       0       0       0       0       0       0       0       0       0       0
       0       0       0       0       0       0       0       0       0       0
       0       0       0       0       0       0       0       0       0       0
       0       0       0       0       0       0       0       0       0       0
       0       0       0       0       0       0       0       0       0       0
       0       0       0       0       0       0       0       0       0       0
       0       0       0       0       0       0       0       0       0       0
       0       0       0       0       0
%FLAG RADIUS_SET                                                                
%FORMAT(1a80)                                                                   
modified Bondi radii (mbondi)                                                   
%FLAG RADII                                                                     
%FORMAT(5E16.8)                                                                 
  1.70000000E+00  1.70000000E+00  1.70000000E+00  1.50000000E+00  1.70000000E+00
  1.70000000E+00  1.70000000E+00  1.70000000E+00  1.70000000E+00  1.70000000E+00
  1.50000000E+00  1.70000000E+00  1.70000000E+00  1.50000000E+00  1.70000000E+00
  1.70000000E+00  1.70000000E+00  1.70000000E+00  1.50000000E+00  1.70000000E+00
  1.70000000E+00  1.70000000E+00  1.50000000E+00  1.70000000E+00  1.70000000E+00
  1.70000000E+00  1.50000000E+00  1.70000000E+00  1.50000000E+00  1.70000000E+00
  1.70000000E+00  1.70000000E+00  1.70000000E+00  1.70000000E+00  1.70000000E+00
  1.70000000E+00  1.70000000E+00  1.30000000E+00  1.30000000E+00  1.30000000E+00
  1.30000000E+00  1.30000000E+00  1.30000000E+00  1.30000000E+00  1.30000000E+00
  1.30000000E+00  1.30000000E+00  1.30000000E+00  1.30000000E+00  1.30000000E+00
  1.30000000E+00  1.30000000E+00  1.30000000E+00  8.00000000E-01  1.30000000E+00
  1.30000000E+00  1.30000000E+00  8.00000000E-01  1.30000000E+00  1.30000000E+00
  1.30000000E+00  1.30000000E+00  1.30000000E+00  8.00000000E-01  1.30000000E+00
  1.30000000E+00  1.30000000E+00  1.30000000E+00  1.30000000E+00  8.00000000E-01
  1.30000000E+00  8.00000000E-01  1.30000000E+00  1.30000000E+00  1.30000000E+00
  1.30000000E+00  1.30000000E+00  1.30000000E+00  1.30000000E+00  1.30000000E+00
  1.30000000E+00  1.30000000E+00  1.30000000E+00  1.30000000E+00  1.30000000E+00
%FLAG SCREEN                                                                    
%FORMAT(5E16.8)                                                                 
  7.20000000E-01  7.20000000E-01  7.20000000E-01  8.50000000E-01  7.20000000E-01
  7.20000000E-01  7.20000000E-01  7.20000000E-01  7.20000000E-01  7.20000000E-01
  8.50000000E-01  7.20000000E-01  7.20000000E-01  8.50000000E-01  7.20000000E-01
  7.20000000E-01  7.20000000E-01  7.20000000E-01  8.50000000E-01  7.20000000E-01
  7.20000000E-01  7.20000000E-01  8.50000000E-01  7.20000000E-01  7.20000000E-01
  7.20000000E-01  8.50000000E-01  7.20000000E-01  8.50000000E-01  7.20000000E-01
  7.20000000E-01  7.20000000E-01  7.20000000E-01  7.20000000E-01  7.20000000E-01
  7.20000000E-01  7.20000000E-01  8.50000000E-01  8.50000000E-01  8.50000000E-01
  8.50000000E-01  8.50000000E-01  8.50000000E-01  8.50000000E-01  8.50000000E-01
  8.50000000E-01  8.50000000E-01  8.50000000E-01  8.50000000E-01  8.50000000E-01
  8.50000000E-01  8.50000000E-01  8.50000000E-01  8.50000000E-01  8.50000000E-01
  8.50000000E-01  8.50000000E-01  8.50000000E-01  8.50000000E-01  8.50000000E-01
  8.50000000E-01  8.50000000E-01  8.50000000E-01  8.50000000E-01  8.50000000E-01
  8.50000000E-01  8.50000000E-01  8.50000000E-01  8.50000000E-01  8.50000000E-01
  8.50000000E-01  8.50000000E-01  8.50000000E-01  8.50000000E-01  8.50000000E-01
  8.50000000E-01  8.50000000E-01  8.50000000E-01  8.50000000E-01  8.50000000E-01
  8.50000000E-01  8.50000000E-01  8.50000000E-01  8.50000000E-01  8.50000000E-01
%FLAG IPOL                                                                      
%FORMAT(1I8)                                                                    
       0
