MOL
    85
  -3.4170000  -3.0740000  -5.0680000  -2.4020000  -3.7600000  -4.5260000
  -2.0180000  -3.7150000  -3.0820000  -0.6300000  -3.3910000  -2.9790000
  -0.3720000  -2.0060000  -2.6430000   0.8550000  -1.5560000  -3.4700000
   0.6680000  -1.6300000  -4.9980000   0.2500000  -0.3170000  -5.6910000
   0.1730000  -0.5330000  -7.2070000  -1.0790000   0.2380000  -5.1880000
   1.2430000   0.6820000  -5.4410000  -0.1390000  -1.8910000  -1.0780000
   1.1210000  -2.6660000  -0.6590000  -1.2470000  -2.5400000  -0.4270000
  -0.0970000  -0.4030000  -0.6060000  -1.4170000   0.3660000  -0.9270000
  -1.6230000   1.4230000   0.1730000  -0.2730000   1.4730000   0.8870000
   0.5940000   2.2350000   0.0290000  -0.1140000   2.0720000   2.2630000
  -1.1460000   2.5110000   3.0030000  -0.9490000   2.9080000   4.4180000
  -1.8600000   3.4830000   5.0060000   0.3650000   2.5090000   5.0710000
   0.5160000   3.1460000   6.4630000   1.8460000   2.7830000   7.1120000
   1.8410000   1.3830000   7.4170000   3.0400000   3.0980000   6.1990000
   4.2290000   2.5710000   6.8000000   2.8770000   2.4460000   4.8200000
   1.5460000   2.8240000   4.1150000   1.5990000   4.3460000   3.7770000
   1.3440000   2.0490000   2.7570000   1.8670000   0.5930000   2.7190000
   1.6330000  -0.1060000   1.3590000   0.1580000  -0.0320000   0.8980000
  -0.7100000  -0.8850000   1.8620000  -4.0430000  -2.4160000  -4.4730000
  -3.6400000  -3.1580000  -6.1270000  -1.8020000  -4.4100000  -5.1600000
  -2.6520000  -3.0340000  -2.5030000  -2.1450000  -4.7180000  -2.6610000
  -1.2410000  -1.4090000  -2.9330000   1.1770000  -0.5510000  -3.1820000
   1.6860000  -2.2340000  -3.2380000   1.6460000  -1.9170000  -5.4110000
  -0.0200000  -2.4360000  -5.2690000   1.1340000  -0.8820000  -7.6030000
  -0.0500000   0.4060000  -7.7260000  -0.5960000  -1.2670000  -7.4700000
  -1.0040000   0.5610000  -4.1470000  -1.8860000  -0.4940000  -5.2790000
  -1.3650000   1.1330000  -5.7530000   2.0900000   0.3560000  -5.7910000
   1.1250000  -2.8750000   0.4140000   1.1590000  -3.6510000  -1.1380000
   2.0380000  -2.1270000  -0.9180000  -1.1650000  -3.4880000  -0.6400000
   0.7040000   0.0810000  -1.1810000  -1.3320000   0.8560000  -1.9030000
  -2.2920000  -0.2910000  -0.9690000  -1.9070000   2.3840000  -0.2700000
  -2.4370000   1.1080000   0.8350000   0.2540000   3.1460000   0.0140000
  -2.1710000   2.5420000   2.6540000   0.3050000   1.4200000   5.2180000
  -0.3060000   2.7960000   7.1010000   0.4170000   4.2360000   6.4020000
   1.9590000   3.3050000   8.0680000   2.7810000   1.1200000   7.4860000
   3.1720000   4.1800000   6.0960000   4.4200000   3.1130000   7.5870000
   2.9420000   1.3600000   4.9600000   3.7360000   2.7090000   4.1890000
   1.6430000   4.9760000   4.6690000   2.4880000   4.5750000   3.1770000
   0.7310000   4.6760000   3.1980000   1.9490000   2.5920000   2.0160000
   2.9490000   0.5810000   2.8980000   1.4100000   0.0040000   3.5230000
   1.9660000  -1.1430000   1.4550000   2.2880000   0.3560000   0.6100000
  -0.3310000  -1.9100000   1.9300000  -1.7560000  -0.9430000   1.5470000
  -0.7140000  -0.4910000   2.8830000
