%VERSION  VERSION_STAMP = V0001.000  DATE = 07/11/26  14:17:26                  
%FLAG TITLE                                                                     
%FORMAT(20a4)                                                                   
MOL                                                                             
%FLAG POINTERS                                                                  
%FORMAT(10I8)                                                                   
      73      10      37      40      90      55     172     117       0       0
     442       1      40      55     117      14      30      31      11       0
       0       0       0       0       0       0       0       0      73       0
       0
%FLAG ATOM_NAME                                                                 
%FORMAT(20a4)                                                                   
O1  C1  O2  C2  C3  C4  C5  C6  C7  N1  C8  O3  C9  C10 C11 C12 C13 C14 C15 N2  
N3  C16 C17 C18 C19 C20 C21 C22 N4  C23 C24 C25 C26 C27 C28 C29 H1  H2  H3  H4  
H5  H6  H7  H8  H9  H10 H11 H12 H13 H14 H15 H16 H17 H18 H19 H20 H21 H22 H23 H24 
H25 H26 H27 H28 H29 H30 H31 H32 H33 H34 H35 H36 H37 
%FLAG CHARGE                                                                    
%FORMAT(5E16.8)                                                                 
 -1.55581997E+01  1.63927811E+01 -1.55581997E+01 -3.61530432E+00 -5.41202310E-01
 -1.39218372E+00 -9.23870610E-01 -1.96618617E+00  1.35756135E+00 -8.10527904E+00
  1.18645395E+01 -1.12449813E+01 -2.63130012E+00 -2.23587621E+00  7.29985338E+00
 -5.07126609E+00 -1.29378330E+00 -3.52783728E+00  1.08459130E+01 -1.33751682E+01
 -1.49769084E+01  3.34925874E+00 -1.30107222E+00 -1.05871563E+00  1.35756135E+00
 -1.96618617E+00 -1.17898281E+00  3.29459184E+00 -1.32585455E+01  3.05405748E+00
 -3.84490530E+00 -1.89511920E+00 -3.49868160E+00 -1.85867460E+00 -2.28325419E+00
 -4.93824330E-01  5.59424610E-01  5.59424610E-01  8.14536810E-01  7.96314510E-01
  7.96314510E-01  4.50090810E-01  1.08787131E+00  1.08787131E+00  8.96537160E-01
  8.96537160E-01  1.18809396E+00  1.18809396E+00  1.19720511E+00  1.19720511E+00
  2.69690040E+00  3.68090460E+00  7.10305254E+00  5.04757710E-01  5.04757710E-01
  7.32536460E-01  7.32536460E-01  1.76209641E+00  1.76209641E+00  8.96537160E-01
  8.96537160E-01  1.08787131E+00  1.08787131E+00  1.79854101E+00  1.17898281E+00
  1.17898281E+00  7.17594174E+00  2.18667600E+00  2.05911990E+00  2.11378680E+00
  2.20489830E+00  7.78092210E-01  7.78092210E-01
%FLAG ATOMIC_NUMBER                                                             
%FORMAT(10I8)                                                                   
       8       6       8       6       6       6       6       6       6       7
       6       8       6       6       6       6       6       6       6       7
       7       6       6       6       6       6       6       6       7       6
       6       6       6       6       6       6       1       1       1       1
       1       1       1       1       1       1       1       1       1       1
       1       1       1       1       1       1       1       1       1       1
       1       1       1       1       1       1       1       1       1       1
       1       1       1
%FLAG MASS                                                                      
%FORMAT(5E16.8)                                                                 
  1.60000000E+01  1.20100000E+01  1.60000000E+01  1.20100000E+01  1.20100000E+01
  1.20100000E+01  1.20100000E+01  1.20100000E+01  1.20100000E+01  1.40100000E+01
  1.20100000E+01  1.60000000E+01  1.20100000E+01  1.20100000E+01  1.20100000E+01
  1.20100000E+01  1.20100000E+01  1.20100000E+01  1.20100000E+01  1.40100000E+01
  1.40100000E+01  1.20100000E+01  1.20100000E+01  1.20100000E+01  1.20100000E+01
  1.20100000E+01  1.20100000E+01  1.20100000E+01  1.40100000E+01  1.20100000E+01
  1.20100000E+01  1.20100000E+01  1.20100000E+01  1.20100000E+01  1.20100000E+01
  1.20100000E+01  1.00800000E+00  1.00800000E+00  1.00800000E+00  1.00800000E+00
  1.00800000E+00  1.00800000E+00  1.00800000E+00  1.00800000E+00  1.00800000E+00
  1.00800000E+00  1.00800000E+00  1.00800000E+00  1.00800000E+00  1.00800000E+00
  1.00800000E+00  1.00800000E+00  1.00800000E+00  1.00800000E+00  1.00800000E+00
  1.00800000E+00  1.00800000E+00  1.00800000E+00  1.00800000E+00  1.00800000E+00
  1.00800000E+00  1.00800000E+00  1.00800000E+00  1.00800000E+00  1.00800000E+00
  1.00800000E+00  1.00800000E+00  1.00800000E+00  1.00800000E+00  1.00800000E+00
  1.00800000E+00  1.00800000E+00  1.00800000E+00
%FLAG ATOM_TYPE_INDEX                                                           
%FORMAT(10I8)                                                                   
       1       2       1       3       3       3       3       3       3       4
       2       1       3       3       2       2       2       2       2       5
       6       3       3       3       3       3       3       3       6       2
       2       2       2       2       2       3       7       7       7       7
       7       7       7       7       8       8       7       7       7       7
       9       9      10       8       8       7       7       7       7       8
       8       7       7       7       8       8      10       9       9       9
       9       7       7
%FLAG NUMBER_EXCLUDED_ATOMS                                                     
%FORMAT(10I8)                                                                   
       6       8       4      12      20      19      18      14      13      16
      14       5       9      10      12       9      10      13      11       7
       8       9       8       7       8       9      17      12      11      14
       9       7       7       7       8       7       2       1       3       2
       1       4       3       2       1       1       3       2       1       1
       1       1       2       3       2       3       2       1       1       3
       2       1       1       4       2       1       1       1       1       1
       1       1       1
%FLAG NONBONDED_PARM_INDEX                                                      
%FORMAT(10I8)                                                                   
       1       2       4       7      11      16      22      29      37      46
       2       3       5       8      12      17      23      30      38      47
       4       5       6       9      13      18      24      31      39      48
       7       8       9      10      14      19      25      32      40      49
      11      12      13      14      15      20      26      33      41      50
      16      17      18      19      20      21      27      34      42      51
      22      23      24      25      26      27      28      35      43      52
      29      30      31      32      33      34      35      36      44      53
      37      38      39      40      41      42      43      44      45      54
      46      47      48      49      50      51      52      53      54      55
%FLAG RESIDUE_LABEL                                                             
%FORMAT(20a4)                                                                   
MOL 
%FLAG RESIDUE_POINTER                                                           
%FORMAT(10I8)                                                                   
       1
%FLAG BOND_FORCE_CONSTANT                                                       
%FORMAT(5E16.8)                                                                 
  6.52600000E+02  2.43200000E+02  2.32500000E+02  3.75900000E+02  2.63800000E+02
  3.75900000E+02  3.56200000E+02  2.50300000E+02  3.78600000E+02  4.14200000E+02
  3.95700000E+02  3.47100000E+02  2.61800000E+02  5.29500000E+02
%FLAG BOND_EQUIL_VALUE                                                          
%FORMAT(5E16.8)                                                                 
  1.21800000E+00  1.52400000E+00  1.53800000E+00  1.09700000E+00  1.46200000E+00
  1.09700000E+00  1.37900000E+00  1.51600000E+00  1.39800000E+00  1.33900000E+00
  1.08600000E+00  1.38600000E+00  1.46400000E+00  1.01200000E+00
%FLAG ANGLE_FORCE_CONSTANT                                                      
%FORMAT(5E16.8)                                                                 
  1.18800000E+02  8.46000000E+01  6.53000000E+01  4.74000000E+01  6.49000000E+01
  4.68000000E+01  8.32000000E+01  4.69000000E+01  6.53000000E+01  6.49000000E+01
  6.15000000E+01  1.13800000E+02  8.43000000E+01  6.52000000E+01  6.56000000E+01
  8.49000000E+01  4.73000000E+01  6.88000000E+01  4.87000000E+01  7.04000000E+01
  8.68000000E+01  8.62000000E+01  6.52000000E+01  4.88000000E+01  1.12100000E+02
  8.35000000E+01  6.12000000E+01  4.64000000E+01  3.90000000E+01  3.88000000E+01
%FLAG ANGLE_EQUIL_VALUE                                                         
%FORMAT(5E16.8)                                                                 
  2.27329233E+00  2.15024656E+00  1.93801443E+00  1.89839544E+00  1.94621748E+00
  1.91637234E+00  1.94796281E+00  1.91218355E+00  2.10643878E+00  2.01829961E+00
  1.90031530E+00  2.14762857E+00  2.01027109E+00  1.95599133E+00  2.10783504E+00
  2.03645104E+00  1.92806605E+00  2.09474507E+00  2.09230160E+00  2.04587583E+00
  2.14570870E+00  2.11097664E+00  2.09404693E+00  2.02580453E+00  2.04098890E+00
  1.92789152E+00  1.91619781E+00  2.02440827E+00  1.87762601E+00  1.89298492E+00
%FLAG DIHEDRAL_FORCE_CONSTANT                                                   
%FORMAT(5E16.8)                                                                 
  7.40000000E-01  2.70000000E-01  5.50000000E-01  8.30000000E-01  4.00000000E-02
  1.00000000E-01  1.55555556E-01  1.10000000E-01  2.90000000E-01  1.30000000E-01
  8.00000000E-02  2.10000000E-01  1.02000000E+00  1.70000000E-01  1.00000000E-01
  0.00000000E+00  2.50000000E+00  5.00000000E-01  2.60000000E-01  7.10000000E-01
  0.00000000E+00  0.00000000E+00  2.45000000E-01  3.62500000E+00  4.80000000E+00
  5.50000000E-01  1.05000000E+00  3.32000000E-01  1.20000000E-01  1.10000000E+00
  1.05000000E+01
%FLAG DIHEDRAL_PERIODICITY                                                      
%FORMAT(5E16.8)                                                                 
  1.00000000E+00  2.00000000E+00  3.00000000E+00  1.00000000E+00  3.00000000E+00
  3.00000000E+00  3.00000000E+00  1.00000000E+00  2.00000000E+00  3.00000000E+00
  3.00000000E+00  3.00000000E+00  1.00000000E+00  3.00000000E+00  4.00000000E+00
  2.00000000E+00  2.00000000E+00  1.00000000E+00  2.00000000E+00  2.00000000E+00
  4.00000000E+00  2.00000000E+00  2.00000000E+00  2.00000000E+00  2.00000000E+00
  2.00000000E+00  2.00000000E+00  2.00000000E+00  3.00000000E+00  2.00000000E+00
  2.00000000E+00
%FLAG DIHEDRAL_PHASE                                                            
%FORMAT(5E16.8)                                                                 
  0.00000000E+00  3.14159400E+00  3.14159400E+00  0.00000000E+00  3.14159400E+00
  0.00000000E+00  0.00000000E+00  0.00000000E+00  3.14159400E+00  0.00000000E+00
  0.00000000E+00  0.00000000E+00  3.14159400E+00  0.00000000E+00  3.14159400E+00
  0.00000000E+00  3.14159400E+00  0.00000000E+00  3.14159400E+00  3.14159400E+00
  3.14159400E+00  3.14159400E+00  3.14159400E+00  3.14159400E+00  3.14159400E+00
  3.14159400E+00  3.14159400E+00  0.00000000E+00  0.00000000E+00  3.14159400E+00
  3.14159400E+00
%FLAG SCEE_SCALE_FACTOR                                                         
%FORMAT(5E16.8)                                                                 
  1.20000000E+00  1.20000000E+00  1.20000000E+00  1.20000000E+00  1.20000000E+00
  1.20000000E+00  1.20000000E+00  1.20000000E+00  1.20000000E+00  1.20000000E+00
  1.20000000E+00  1.20000000E+00  1.20000000E+00  1.20000000E+00  1.20000000E+00
  1.20000000E+00  1.20000000E+00  1.20000000E+00  1.20000000E+00  1.20000000E+00
  1.20000000E+00  1.20000000E+00  1.20000000E+00  1.20000000E+00  1.20000000E+00
  1.20000000E+00  1.20000000E+00  1.20000000E+00  1.20000000E+00  0.00000000E+00
  0.00000000E+00
%FLAG SCNB_SCALE_FACTOR                                                         
%FORMAT(5E16.8)                                                                 
  2.00000000E+00  2.00000000E+00  2.00000000E+00  2.00000000E+00  2.00000000E+00
  2.00000000E+00  2.00000000E+00  2.00000000E+00  2.00000000E+00  2.00000000E+00
  2.00000000E+00  2.00000000E+00  2.00000000E+00  2.00000000E+00  2.00000000E+00
  2.00000000E+00  2.00000000E+00  2.00000000E+00  2.00000000E+00  2.00000000E+00
  2.00000000E+00  2.00000000E+00  2.00000000E+00  2.00000000E+00  2.00000000E+00
  2.00000000E+00  2.00000000E+00  2.00000000E+00  2.00000000E+00  0.00000000E+00
  0.00000000E+00
%FLAG SOLTY                                                                     
%FORMAT(5E16.8)                                                                 
  0.00000000E+00  0.00000000E+00  0.00000000E+00  0.00000000E+00  0.00000000E+00
  0.00000000E+00  0.00000000E+00  0.00000000E+00  0.00000000E+00  0.00000000E+00
  0.00000000E+00
%FLAG LENNARD_JONES_ACOEF                                                       
%FORMAT(5E16.8)                                                                 
  3.76435470E+05  5.17507491E+05  6.96551276E+05  6.30925504E+05  8.43969952E+05
  1.02073671E+06  5.15491878E+05  7.01106848E+05  8.52084164E+05  7.02078680E+05
  5.74782316E+05  7.69642101E+05  9.31115275E+05  7.76656876E+05  8.49322032E+05
  6.04358274E+05  8.15700858E+05  9.89136215E+05  8.19918726E+05  9.01905150E+05
  9.54886922E+05  5.68021765E+04  8.12662403E+04  1.00235148E+05  7.93773615E+04
  9.11435380E+04  9.44129241E+04  7.94617769E+03  3.86646725E+04  5.63013422E+04
  6.97998263E+04  5.45183252E+04  6.34160397E+04  6.52595638E+04  5.22955465E+03
  3.39005767E+03  5.27277400E+04  7.52549148E+04  9.27554496E+04  7.35931098E+04
  8.43518904E+04  8.74566229E+04  7.41026906E+03  4.88692384E+03  6.90855956E+03
  9.87857350E+02  1.71458823E+03  2.23577481E+03  1.52360475E+03  2.01475241E+03
  1.94284817E+03  9.47421632E+01  5.24570081E+01  9.04434904E+01  1.34728399E-01
%FLAG LENNARD_JONES_BCOEF                                                       
%FORMAT(5E16.8)                                                                 
  4.69350655E+02  4.98871431E+02  5.24668528E+02  5.62969425E+02  5.90251928E+02
  6.63431737E+02  5.64804067E+02  5.97113873E+02  6.72777963E+02  6.77820248E+02
  5.19385932E+02  5.44830041E+02  6.12468585E+02  6.20851625E+02  5.65406768E+02
  6.02865504E+02  6.34916791E+02  7.14570130E+02  7.22093348E+02  6.59538202E+02
  7.68192761E+02  1.11953944E+02  1.21392023E+02  1.37787728E+02  1.36094315E+02
  1.27000718E+02  1.46316625E+02  2.57122925E+01  9.23664132E+01  1.01040256E+02
  1.14981426E+02  1.12788003E+02  1.05935811E+02  1.21646616E+02  2.08590256E+01
  1.67944276E+01  1.01173582E+02  1.09570372E+02  1.24325688E+02  1.22913863E+02
  1.14599119E+02  1.32088478E+02  2.32899892E+01  1.89134207E+01  2.10929191E+01
  1.22938581E+01  1.46824710E+01  1.71355763E+01  1.57004457E+01  1.57231024E+01
  1.74775900E+01  2.33785449E+00  1.73959275E+00  2.14252117E+00  7.34107347E-02
%FLAG BONDS_INC_HYDROGEN                                                        
%FORMAT(10I8)                                                                   
       9     108       4       9     111       4      12     114       4      15
     117       4      15     120       4      18     123       4      21     126
       4      21     129       4      24     132       6      24     135       6
      36     138       4      36     141       4      39     144       4      39
     147       4      45     150      11      48     153      11      60     156
      14      63     159       6      63     162       6      66     165       4
      66     168       4      69     171       4      69     174       4      72
     177       6      72     180       6      75     183       4      75     186
       4      78     189       4      81     192       6      81     195       6
      84     198      14      90     201      11      93     204      11      96
     207      11      99     210      11     105     213       4     105     216
       4
%FLAG BONDS_WITHOUT_HYDROGEN                                                    
%FORMAT(10I8)                                                                   
       0       3       1       3       6       1       3       9       2       9
      12       3      12      15       3      12      78       3      15      18
       3      18      21       3      18      75       3      21      24       3
      24      27       5      27      30       7      27      72       5      30
      33       1      30      36       2      36      39       3      39      42
       8      42      45       9      42      57      10      45      48       9
      48      51       9      51      54       9      51      69       8      54
      57      10      54      60      12      60      63      13      63      66
       3      66      69       3      72      75       3      78      81       3
      78     105       3      81      84      13      84      87      12      87
      90       9      87     102       9      90      93       9      93      96
       9      96      99       9      99     102       9     102     105       8
%FLAG ANGLES_INC_HYDROGEN                                                       
%FORMAT(10I8)                                                                   
       3       9     108       4       3       9     111       4       9      12
     114       6      12       9     108       6      12       9     111       6
      12      15     117       6      12      15     120       6      12      78
     189       6      15      12     114       6      15      18     123       6
      18      15     117       6      18      15     120       6      18      21
     126       6      18      21     129       6      18      75     183       6
      18      75     186       6      21      18     123       6      21      24
     132       8      21      24     135       8      24      21     126       6
      24      21     129       6      27      24     132      11      27      24
     135      11      27      72     177      11      27      72     180      11
      30      36     138       4      30      36     141       4      36      39
     144       6      36      39     147       6      39      36     138       6
      39      36     141       6      42      39     144      17      42      39
     147      17      42      45     150      19      45      48     153      19
      48      45     150      19      51      48     153      19      51      69
     171      17      51      69     174      17      54      60     156      24
      60      63     159      27      60      63     162      27      63      60
     156      28      63      66     165       6      63      66     168       6
      66      63     159       8      66      63     162       8      66      69
     171       6      66      69     174       6      69      66     165       6
      69      66     168       6      72      75     183       6      72      75
     186       6      75      72     177       8      75      72     180       8
      75      18     123       6      78      12     114       6      78      81
     192       8      78      81     195       8      78     105     213       6
      78     105     216       6      81      78     189       6      81      84
     198      28      84      81     192      27      84      81     195      27
      87      84     198      24      87      90     201      19      90      93
     204      19      93      90     201      19      93      96     207      19
      96      93     204      19      96      99     210      19      99      96
     207      19     102      99     210      19     102     105     213      17
     102     105     216      17     105      78     189       6     108       9
     111      29     117      15     120      29     126      21     129      29
     132      24     135      30     138      36     141      29     144      39
     147      29     159      63     162      30     165      66     168      29
     171      69     174      29     177      72     180      30     183      75
     186      29     192      81     195      30     213     105     216      29
%FLAG ANGLES_WITHOUT_HYDROGEN                                                   
%FORMAT(10I8)                                                                   
       0       3       6       1       0       3       9       2       3       9
      12       3       6       3       9       2       9      12      15       5
       9      12      78       5      12      15      18       5      12      78
      81       5      12      78     105       5      15      12      78       5
      15      18      21       5      15      18      75       5      18      21
      24       5      18      75      72       5      21      18      75       5
      21      24      27       7      24      27      30       9      24      27
      72      10      27      30      33      12      27      30      36      13
      27      72      75       7      30      27      72       9      30      36
      39       3      33      30      36       2      36      39      42      14
      39      42      45      15      39      42      57      16      42      45
      48      18      42      57      54      20      45      42      57      21
      45      48      51      18      48      51      54      18      48      51
      69      15      51      54      57      21      51      54      60      22
      51      69      66      14      54      51      69      15      54      60
      63      23      57      54      60      25      60      63      66      26
      63      66      69       5      78      81      84      26      78     105
     102      14      81      78     105       5      81      84      87      23
      84      87      90      22      84      87     102      22      87      90
      93      18      87     102      99      18      87     102     105      15
      90      87     102      18      90      93      96      18      93      96
      99      18      96      99     102      18      99     102     105      15
%FLAG DIHEDRALS_INC_HYDROGEN                                                    
%FORMAT(10I8)                                                                   
       0       3       9     108       4       0       3      -9     108       5
       0       3       9     111       4       0       3      -9     111       5
       3       9      12     114       7       6       3       9     108       4
       6       3      -9     108       5       6       3       9     111       4
       6       3      -9     111       5       9      12      15     117      11
       9      12      15     120      11       9      12      78     189      11
      12      15      18     123      11      12      78      81     192       7
      12      78      81     195       7      12      78     105     213      11
      12      78     105     216      11      15      12       9     108      11
      15      12       9     111      11      15      12      78     189      11
      15      18      21     126      11      15      18      21     129      11
      15      18      75     183      11      15      18      75     186      11
      18      15      12     114      11      18      21      24     132       7
      18      21      24     135       7      18      75      72     177       7
      18      75      72     180       7      21      18      15     117      11
      21      18      15     120      11      21      18      75     183      11
      21      18      75     186      11      24      21      18     123      11
      24      27      72     177      16      24      27      72     180      16
      27      24      21     126       7      27      24      21     129       7
      27      30      36     138      22      27      30      36     141      22
      27      72      75     183       7      27      72      75     186       7
      30      27      24     132      22      30      27      24     135      22
      30      27      72     177      22      30      27      72     180      22
      30      36      39     144       7      30      36      39     147       7
      33      30      36     138       4      33      30     -36     138      22
      33      30     -36     138       5      33      30      36     141       4
      33      30     -36     141      22      33      30     -36     141       5
      39      42      45     150      24      42      39      36     138       7
      42      39      36     141       7      42      45      48     153      24
      45      42      39     144      22      45      42      39     147      22
      48      51      69     171      22      48      51      69     174      22
      51      48      45     150      24      51      54      60     156      27
      51      69      66     165       7      51      69      66     168       7
      54      51      48     153      24      54      51      69     171      22
      54      51      69     174      22      54      60      63     159      28
      54      60      63     162      28      57      54      60     156      27
      57      42      39     144      16      57      42      39     147      16
      57      42      45     150      24      60      63      66     165       7
      60      63      66     168       7      63      66      69     171      11
      63      66      69     174      11      66      63      60     156      16
      69      66      63     159       7      69      66      63     162       7
      69      51      48     153      24      72      27      24     132      16
      72      27      24     135      16      72      75      18     123      11
      75      18      15     117      11      75      18      15     120      11
      75      18      21     126      11      75      18      21     129      11
      78      12       9     108      11      78      12       9     111      11
      78      12      15     117      11      78      12      15     120      11
      78      81      84     198      16      81      78      12     114      11
      81      78     105     213      11      81      78     105     216      11
      84      81      78     189       7      84      87      90     201      24
      87      84      81     192      28      87      84      81     195      28
      87      90      93     204      24      87     102      99     210      24
      87     102     105     213      22      87     102     105     216      22
      90      87      84     198      27      90      93      96     207      24
      93      96      99     210      24      96      93      90     201      24
      99      96      93     204      24      99     102     105     213      22
      99     102     105     216      22     102      99      96     207      24
     102     105      78     189       7     102      87      84     198      27
     102      87      90     201      24     105     102      99     210      24
     105      78      12     114      11     105      78      81     192       7
     105      78      81     195       7     108       9      12     114      29
     111       9      12     114      29     114      12      15     117      29
     114      12      15     120      29     114      12      78     189      29
     117      15      18     123      29     120      15      18     123      29
     123      18      21     126      29     123      18      21     129      29
     123      18      75     183      29     123      18      75     186      29
     126      21      24     132       7     126      21      24     135       7
     129      21      24     132       7     129      21      24     135       7
     138      36      39     144      29     138      36      39     147      29
     141      36      39     144      29     141      36      39     147      29
     150      45      48     153      24     156      60      63     159      16
     156      60      63     162      16     159      63      66     165       7
     159      63      66     168       7     162      63      66     165       7
     162      63      66     168       7     165      66      69     171      29
     165      66      69     174      29     168      66      69     171      29
     168      66      69     174      29     177      72      75     183       7
     177      72      75     186       7     180      72      75     183       7
     180      72      75     186       7     189      78      81     192       7
     189      78      81     195       7     189      78     105     213      29
     189      78     105     216      29     192      81      84     198      16
     195      81      84     198      16     201      90      93     204      24
     204      93      96     207      24     207      96      99     210      24
      42      48     -45    -150      30      45      51     -48    -153      30
      63      54     -60    -156      30      81      87     -84    -198      30
      87      93     -90    -201      30      90      96     -93    -204      30
      93      99     -96    -207      30      96     102     -99    -210      30
%FLAG DIHEDRALS_WITHOUT_HYDROGEN                                                
%FORMAT(10I8)                                                                   
       0       3       9      12       1       0       3      -9      12       2
       0       3      -9      12       3       3       9      12      15       6
       3       9      12      78       6       6       3       9      12       1
       6       3      -9      12       2       6       3      -9      12       3
       9      12      15      18       8       9      12     -15      18       9
       9      12     -15      18      10       9      12      78      81       8
       9      12     -78      81       9       9      12     -78      81      10
       9      12      78     105       8       9      12     -78     105       9
       9      12     -78     105      10      12      15      18      21       8
      12      15     -18      21       9      12      15     -18      21      10
      12      15      18      75       8      12      15     -18      75       9
      12      15     -18      75      10      12      78      81      84      12
      12      78     105     102       7      15      12      78      81       8
      15      12     -78      81       9      15      12     -78      81      10
      15      12      78     105       8      15      12     -78     105       9
      15      12     -78     105      10      15      18      21      24       8
      15      18     -21      24       9      15      18     -21      24      10
      15      18      75      72       8      15      18     -75      72       9
      15      18     -75      72      10      18      15      12      78       8
      18      15     -12      78       9      18      15     -12      78      10
      18      21      24      27       6      18      75     -72      27       6
      21      18      75      72       8      21      18     -75      72       9
      21      18     -75      72      10      21      24      27      30      13
      21      24     -27      30      14      21      24     -27      30      15
      21      24     -27      72      16      24      21      18      75       8
      24      21     -18      75       9      24      21     -18      75      10
      24      27      30      33      17      24      27      30      36      18
      24      27     -30      36      19      24      27     -72      75      16
      27      30      36      39      20      27      30     -36      39      21
      30      27      72      75      13      30      27     -72      75      16
      30      27     -72      75      14      30      27     -72      75      15
      30      36      39      42       6      33      30      27      72      17
      33      30      36      39       1      33      30     -36      39       2
      33      30     -36      39       3      36      30      27      72      18
      36      30     -27      72      19      36      39      42      45      23
      36      39      42      57      16      39      42      45      48      24
      39      42      57      54      25      42      45      48      51      24
      42      57     -54      51      25      42      57      54      60      25
      45      42      57      54      25      45      48     -51      54      24
      45      48      51      69      24      48      45      42      57      24
      48      51     -54      57      24      48      51      54      60      24
      48      51      69      66      23      51      54      60      63      26
      51      69     -66      63       7      54      51      69      66      23
      54      60     -63      66      16      57      54      51      69      24
      57      54      60      63      27      60      54      51      69      24
      60      63     -66      69      12      78      81      84      87      16
      78     105     102      99      23      78     105    -102      87      23
      81      78     105     102       7      81      84      87      90      26
      81      84     -87     102      26      84      81      78     105      12
      84      87      90      93      24      84      87     102      99      24
      84      87    -102     105      24      87      90      93      96      24
      87     102     -99      96      24      90      87     102      99      24
      90      87     102     105      24      90      93     -96      99      24
      93      90      87     102      24      93      96     -99     102      24
      96      99     102     105      24       9       0      -3      -6      30
      30      24     -27     -72      30      36      27     -30     -33      31
      39      45     -42     -57      30      48      54     -51     -69      30
      51      57     -54     -60      30      90     102     -87     -84      30
     105      87    -102     -99      30
%FLAG EXCLUDED_ATOMS_LIST                                                       
%FORMAT(10I8)                                                                   
       2       3       4       5      37      38       3       4       5       6
      27      37      38      39       4       5      37      38       5       6
       7      27      28      36      37      38      39      40      41      64
       6       7       8      26      27      28      29      35      36      37
      38      39      40      41      42      64      65      66      72      73
       7       8       9      25      26      27      28      36      37      38
      39      40      41      42      43      44      62      63      64       8
       9      10      25      26      27      39      40      41      42      43
      44      45      46      60      61      62      63       9      10      11
      25      26      40      41      42      43      44      45      46      62
      63      10      11      12      13      25      26      42      43      44
      45      46      60      61      11      12      13      14      25      26
      43      44      45      46      47      48      60      61      62      63
      12      13      14      15      25      26      45      46      47      48
      49      50      60      61      13      14      25      47      48      14
      15      16      20      25      47      48      49      50      15      16
      17      19      20      47      48      49      50      51      16      17
      18      19      20      21      47      48      49      50      51      52
      17      18      19      20      24      49      50      51      52      18
      19      20      21      23      24      51      52      58      59      19
      20      21      22      23      24      51      52      53      56      57
      58      59      20      21      22      23      24      52      53      54
      55      58      59      21      22      24      49      50      51      53
      22      23      24      53      54      55      56      57      23      24
      53      54      55      56      57      58      59      24      53      54
      55      56      57      58      59      52      54      55      56      57
      58      59      26      42      45      46      60      61      62      63
      40      41      42      43      44      60      61      62      63      28
      29      30      34      35      36      37      38      39      40      41
      64      65      66      67      72      73      29      30      31      35
      36      39      64      65      66      67      72      73      30      31
      32      34      35      36      64      65      66      67      68      31
      32      33      34      35      36      65      66      67      68      69
      71      72      73      32      33      34      35      36      67      68
      69      70      33      34      35      68      69      70      71      34
      35      36      68      69      70      71      35      36      69      70
      71      72      73      36      64      67      68      70      71      72
      73      39      64      65      66      71      72      73      38      39
      39      40      41      64      41      42      42      43      44      62
      63      44      45      46      45      46      46       0      48      49
      50      49      50      50       0      52       0      54      55      55
      56      57      56      57      57      58      59      58      59      59
       0      61      62      63      62      63      63       0      65      66
      72      73      66      67      67       0      69      70      71       0
      73       0
%FLAG HBOND_ACOEF                                                               
%FORMAT(5E16.8)                                                                 

%FLAG HBOND_BCOEF                                                               
%FORMAT(5E16.8)                                                                 

%FLAG HBCUT                                                                     
%FORMAT(5E16.8)                                                                 

%FLAG AMBER_ATOM_TYPE                                                           
%FORMAT(20a4)                                                                   
o   c   o   c3  c3  c3  c3  c3  c3  n   c   o   c3  c3  ca  ca  ca  ca  ca  nb  
nu  c3  c3  c3  c3  c3  c3  c3  nu  ca  ca  ca  ca  ca  ca  c3  hc  hc  hc  hc  
hc  hc  hc  hc  h1  h1  hc  hc  hc  hc  ha  ha  hn  h1  h1  hc  hc  hc  hc  h1  
h1  hc  hc  hc  h1  h1  hn  ha  ha  ha  ha  hc  hc  
%FLAG TREE_CHAIN_CLASSIFICATION                                                 
%FORMAT(20a4)                                                                   
BLA BLA BLA BLA BLA BLA BLA BLA BLA BLA BLA BLA BLA BLA BLA BLA BLA BLA BLA BLA 
BLA BLA BLA BLA BLA BLA BLA BLA BLA BLA BLA BLA BLA BLA BLA BLA BLA BLA BLA BLA 
BLA BLA BLA BLA BLA BLA BLA BLA BLA BLA BLA BLA BLA BLA BLA BLA BLA BLA BLA BLA 
BLA BLA BLA BLA BLA BLA BLA BLA BLA BLA BLA BLA BLA 
%FLAG JOIN_ARRAY                                                                
%FORMAT(10I8)                                                                   
       0       0       0       0       0       0       0       0       0       0
       0       0       0       0       0       0       0       0       0       0
       0       0       0       0       0       0       0       0       0       0
       0       0       0       0       0       0       0       0       0       0
       0       0       0       0       0       0       0       0       0       0
       0       0       0       0       0       0       0       0       0       0
       0       0       0       0       0       0       0       0       0       0
       0       0       0
%FLAG IROTAT                                                                    
%FORMAT(10I8)                                                                   
       0       0       0       0       0       0       0       0       0       0
       0       0       0       0       0       0       0       0       0       0
       0       0       0       0       0       0       0       0       0       0
       0       0       0       0       0       0       0       0       0       0
       0       0       0       0       0       0       0       0       0       0
       0       0       0       0       0       0       0       0       0       0
       0       0       0       0       0       0       0       0       0       0
       0       0       0
%FLAG RADIUS_SET                                                                
%FORMAT(1a80)                                                                   
modified Bondi radii (mbondi)                                                   
%FLAG RADII                                                                     
%FORMAT(5E16.8)                                                                 
  1.50000000E+00  1.70000000E+00  1.50000000E+00  1.70000000E+00  1.70000000E+00
  1.70000000E+00  1.70000000E+00  1.70000000E+00  1.70000000E+00  1.55000000E+00
  1.70000000E+00  1.50000000E+00  1.70000000E+00  1.70000000E+00  1.70000000E+00
  1.70000000E+00  1.70000000E+00  1.70000000E+00  1.70000000E+00  1.55000000E+00
  1.55000000E+00  1.70000000E+00  1.70000000E+00  1.70000000E+00  1.70000000E+00
  1.70000000E+00  1.70000000E+00  1.70000000E+00  1.55000000E+00  1.70000000E+00
  1.70000000E+00  1.70000000E+00  1.70000000E+00  1.70000000E+00  1.70000000E+00
  1.70000000E+00  1.30000000E+00  1.30000000E+00  1.30000000E+00  1.30000000E+00
  1.30000000E+00  1.30000000E+00  1.30000000E+00  1.30000000E+00  1.30000000E+00
  1.30000000E+00  1.30000000E+00  1.30000000E+00  1.30000000E+00  1.30000000E+00
  1.30000000E+00  1.30000000E+00  1.30000000E+00  1.30000000E+00  1.30000000E+00
  1.30000000E+00  1.30000000E+00  1.30000000E+00  1.30000000E+00  1.30000000E+00
  1.30000000E+00  1.30000000E+00  1.30000000E+00  1.30000000E+00  1.30000000E+00
  1.30000000E+00  1.30000000E+00  1.30000000E+00  1.30000000E+00  1.30000000E+00
  1.30000000E+00  1.30000000E+00  1.30000000E+00
%FLAG SCREEN                                                                    
%FORMAT(5E16.8)                                                                 
  8.50000000E-01  7.20000000E-01  8.50000000E-01  7.20000000E-01  7.20000000E-01
  7.20000000E-01  7.20000000E-01  7.20000000E-01  7.20000000E-01  7.90000000E-01
  7.20000000E-01  8.50000000E-01  7.20000000E-01  7.20000000E-01  7.20000000E-01
  7.20000000E-01  7.20000000E-01  7.20000000E-01  7.20000000E-01  7.90000000E-01
  7.90000000E-01  7.20000000E-01  7.20000000E-01  7.20000000E-01  7.20000000E-01
  7.20000000E-01  7.20000000E-01  7.20000000E-01  7.90000000E-01  7.20000000E-01
  7.20000000E-01  7.20000000E-01  7.20000000E-01  7.20000000E-01  7.20000000E-01
  7.20000000E-01  8.50000000E-01  8.50000000E-01  8.50000000E-01  8.50000000E-01
  8.50000000E-01  8.50000000E-01  8.50000000E-01  8.50000000E-01  8.50000000E-01
  8.50000000E-01  8.50000000E-01  8.50000000E-01  8.50000000E-01  8.50000000E-01
  8.50000000E-01  8.50000000E-01  8.50000000E-01  8.50000000E-01  8.50000000E-01
  8.50000000E-01  8.50000000E-01  8.50000000E-01  8.50000000E-01  8.50000000E-01
  8.50000000E-01  8.50000000E-01  8.50000000E-01  8.50000000E-01  8.50000000E-01
  8.50000000E-01  8.50000000E-01  8.50000000E-01  8.50000000E-01  8.50000000E-01
  8.50000000E-01  8.50000000E-01  8.50000000E-01
%FLAG IPOL                                                                      
%FORMAT(1I8)                                                                    
       0
