MOL
    73
  -2.6730000  -1.6720000  -2.1770000  -1.7410000  -2.2110000  -1.5190000
  -1.4730000  -3.4350000  -1.3520000  -0.7850000  -1.2420000  -0.8210000
   0.1500000  -0.4970000  -1.7940000   1.1350000   0.4310000  -1.0410000
   0.5890000   1.6110000  -0.2050000  -0.5890000   2.3590000  -0.8500000
  -1.0030000   3.5650000  -0.0030000  -1.2750000   3.1540000   1.3730000
  -2.5470000   3.3370000   1.8890000  -3.3980000   4.0030000   1.2910000
  -2.8890000   2.7360000   3.2430000  -4.3290000   2.2170000   3.2750000
  -4.4070000   0.8420000   2.6580000  -4.4880000   0.6850000   1.2790000
  -4.4500000  -0.5990000   0.7540000  -4.3500000  -1.6880000   1.6190000
  -4.2700000  -1.4480000   2.9910000  -4.3030000  -0.2060000   3.5150000
  -4.1610000  -2.4860000   3.8910000  -3.8210000  -3.8090000   3.4250000
  -4.5840000  -4.1260000   2.1450000  -4.2470000  -3.0880000   1.0770000
  -0.1490000   2.4970000   2.0360000   0.2750000   1.2490000   1.2600000
   0.8610000  -1.4880000  -2.7920000   1.7240000  -2.5810000  -2.1510000
   3.0430000  -2.1040000  -1.7700000   3.7370000  -1.2280000  -2.5800000
   5.0880000  -0.9610000  -2.3270000   5.8080000  -0.0690000  -3.1240000
   5.1810000   0.5760000  -4.1860000   3.8330000   0.3340000  -4.4410000
   3.1040000  -0.5540000  -3.6340000   1.6430000  -0.7940000  -3.9250000
  -1.4230000  -0.5280000  -0.2910000  -0.2080000  -1.7720000  -0.0550000
  -0.4840000   0.1400000  -2.4260000   1.7920000  -0.1690000  -0.4010000
   1.7830000   0.8980000  -1.7910000   1.4220000   2.3290000  -0.1530000
  -1.4540000   1.6940000  -0.9510000  -0.3160000   2.6970000  -1.8570000
  -0.1970000   4.3080000   0.0260000  -1.8730000   4.0470000  -0.4600000
  -2.2190000   1.9230000   3.5260000  -2.7710000   3.5410000   3.9770000
  -5.0360000   2.8920000   2.7800000  -4.6540000   2.1430000   4.3200000
  -4.5450000   1.5400000   0.6130000  -4.4640000  -0.7510000  -0.3240000
  -4.0520000  -2.2070000   4.8530000  -2.7400000  -3.8760000   3.2530000
  -4.0730000  -4.5410000   4.2000000  -5.6630000  -4.1120000   2.3460000
  -4.3320000  -5.1300000   1.7870000  -3.2210000  -3.2490000   0.7320000
  -4.9190000  -3.2180000   0.2210000  -0.3580000   2.2480000   3.0760000
   0.6760000   3.2200000   2.0580000   1.1590000   0.8100000   1.7360000
  -0.5270000   0.5080000   1.3210000   0.0410000  -2.0060000  -3.3070000
   1.8570000  -3.3960000  -2.8750000   1.2420000  -3.0270000  -1.2780000
   3.5180000  -2.5940000  -1.0260000   5.5890000  -1.4570000  -1.5010000
   6.8560000   0.1190000  -2.9140000   5.7360000   1.2690000  -4.8110000
   3.3420000   0.8430000  -5.2660000   1.6000000  -1.4340000  -4.8160000
   1.1530000   0.1510000  -4.1900000
