%VERSION  VERSION_STAMP = V0001.000  DATE = 07/11/26  14:43:33                  
%FLAG TITLE                                                                     
%FORMAT(20a4)                                                                   
MOL                                                                             
%FLAG POINTERS                                                                  
%FORMAT(10I8)                                                                   
      34      13      17      18      36      25      64      46       0       0
     182       1      18      25      46      14      24      24      13       0
       0       0       0       0       0       0       0       0      34       0
       0
%FLAG ATOM_NAME                                                                 
%FORMAT(20a4)                                                                   
C1  C2  O1  C3  C4  C5  C6  C7  N1  O2  O3  C8  C9  O4  C10 C11 N2  H1  H2  H3  
H4  H5  H6  H7  H8  H9  H10 H11 H12 H13 H14 H15 H16 H17 
%FLAG CHARGE                                                                    
%FORMAT(5E16.8)                                                                 
 -2.44361043E+00  2.37072123E+00 -7.90118928E+00  6.92811846E+00 -2.31969879E+00
 -1.68556275E+00 -2.09556450E+00  7.76269980E-01 -1.14800490E+00 -7.92305604E+00
 -7.92305604E+00 -2.09556450E+00 -1.68556275E+00 -7.86474468E+00  1.92063042E+00
  7.19780850E-01 -1.51901093E+01  1.33691548E+00  1.33691548E+00  1.33691548E+00
  1.76209641E+00  1.45231731E+00  2.70601155E+00  3.03401295E+00  7.85381130E+00
  7.85381130E+00  3.03401295E+00  2.70601155E+00  1.77120756E+00  1.77120756E+00
  2.27232081E+00  8.51223767E+00  8.51223767E+00  8.51223767E+00
%FLAG ATOMIC_NUMBER                                                             
%FORMAT(10I8)                                                                   
       6       6       8       6       6       6       6       6       7       8
       8       6       6       8       6       6       7       1       1       1
       1       1       1       1       1       1       1       1       1       1
       1       1       1       1
%FLAG MASS                                                                      
%FORMAT(5E16.8)                                                                 
  1.20100000E+01  1.20100000E+01  1.60000000E+01  1.20100000E+01  1.20100000E+01
  1.20100000E+01  1.20100000E+01  1.20100000E+01  1.40100000E+01  1.60000000E+01
  1.60000000E+01  1.20100000E+01  1.20100000E+01  1.60000000E+01  1.20100000E+01
  1.20100000E+01  1.40100000E+01  1.00800000E+00  1.00800000E+00  1.00800000E+00
  1.00800000E+00  1.00800000E+00  1.00800000E+00  1.00800000E+00  1.00800000E+00
  1.00800000E+00  1.00800000E+00  1.00800000E+00  1.00800000E+00  1.00800000E+00
  1.00800000E+00  1.00800000E+00  1.00800000E+00  1.00800000E+00
%FLAG ATOM_TYPE_INDEX                                                           
%FORMAT(10I8)                                                                   
       1       1       2       1       3       3       3       3       4       5
       5       3       3       2       1       1       6       7       7       7
       8       9      10      10      11      11      10      10       8       8
      12      13      13      13
%FLAG NUMBER_EXCLUDED_ATOMS                                                     
%FORMAT(10I8)                                                                   
      11      18      14      14      12      10       9      11       8       4
       3       4       5       7      10      11       7       3       2       1
       1       1       1       1       1       1       1       1       2       1
       3       2       1       1
%FLAG NONBONDED_PARM_INDEX                                                      
%FORMAT(10I8)                                                                   
       1       2       4       7      11      16      22      29      37      46
      56      67      79       2       3       5       8      12      17      23
      30      38      47      57      68      80       4       5       6       9
      13      18      24      31      39      48      58      69      81       7
       8       9      10      14      19      25      32      40      49      59
      70      82      11      12      13      14      15      20      26      33
      41      50      60      71      83      16      17      18      19      20
      21      27      34      42      51      61      72      84      22      23
      24      25      26      27      28      35      43      52      62      73
      85      29      30      31      32      33      34      35      36      44
      53      63      74      86      37      38      39      40      41      42
      43      44      45      54      64      75      87      46      47      48
      49      50      51      52      53      54      55      65      76      88
      56      57      58      59      60      61      62      63      64      65
      66      77      89      67      68      69      70      71      72      73
      74      75      76      77      78      90      79      80      81      82
      83      84      85      86      87      88      89      90      91
%FLAG RESIDUE_LABEL                                                             
%FORMAT(20a4)                                                                   
MOL 
%FLAG RESIDUE_POINTER                                                           
%FORMAT(10I8)                                                                   
       1
%FLAG BOND_FORCE_CONSTANT                                                       
%FORMAT(5E16.8)                                                                 
  2.32500000E+02  3.75900000E+02  2.84800000E+02  3.75900000E+02  2.50300000E+02
  3.77300000E+02  3.78600000E+02  3.95700000E+02  3.47100000E+02  1.75300000E+02
  5.63500000E+02  2.22600000E+02  3.86500000E+02  4.82900000E+02
%FLAG BOND_EQUIL_VALUE                                                          
%FORMAT(5E16.8)                                                                 
  1.53800000E+00  1.09700000E+00  1.43200000E+00  1.09700000E+00  1.51600000E+00
  1.09600000E+00  1.39800000E+00  1.08600000E+00  1.38600000E+00  1.41600000E+00
  9.73000000E-01  1.51100000E+00  1.09100000E+00  1.03000000E+00
%FLAG ANGLE_FORCE_CONSTANT                                                      
%FORMAT(5E16.8)                                                                 
  8.53000000E+01  6.49000000E+01  4.69000000E+01  4.68000000E+01  6.63000000E+01
  8.10000000E+01  4.67000000E+01  6.24000000E+01  8.56000000E+01  1.10900000E+02
  6.24000000E+01  6.56000000E+01  4.75000000E+01  6.88000000E+01  4.87000000E+01
  8.62000000E+01  8.58000000E+01  6.30000000E+01  1.09600000E+02  4.62000000E+01
  6.01000000E+01  3.90000000E+01  3.88000000E+01  4.00000000E+01
%FLAG ANGLE_EQUIL_VALUE                                                         
%FORMAT(5E16.8)                                                                 
  1.88443280E+00  1.94621748E+00  1.91218355E+00  1.91637234E+00  1.96314718E+00
  1.99334139E+00  1.92963685E+00  1.91602327E+00  1.90153704E+00  1.89001786E+00
  1.91253261E+00  2.10783504E+00  1.91462701E+00  2.09474507E+00  2.09230160E+00
  2.11097664E+00  1.97169930E+00  1.79367564E+00  1.85476219E+00  1.92178286E+00
  1.88513093E+00  1.87762601E+00  1.89298492E+00  1.89019239E+00
%FLAG DIHEDRAL_FORCE_CONSTANT                                                   
%FORMAT(5E16.8)                                                                 
  0.00000000E+00  1.60000000E-01  2.40000000E-01  1.10000000E-01  2.90000000E-01
  1.30000000E-01  2.10000000E-01  1.55555556E-01  3.83333333E-01  9.70000000E-01
  1.24000000E+00  0.00000000E+00  2.50000000E-01  0.00000000E+00  0.00000000E+00
  3.37000000E-01  3.62500000E+00  1.05000000E+00  1.43000000E+00  5.00000000E-01
  1.50000000E+00  8.00000000E-02  1.09000000E-01  1.10000000E+00
%FLAG DIHEDRAL_PERIODICITY                                                      
%FORMAT(5E16.8)                                                                 
  1.00000000E+00  2.00000000E+00  3.00000000E+00  1.00000000E+00  2.00000000E+00
  3.00000000E+00  3.00000000E+00  3.00000000E+00  3.00000000E+00  1.00000000E+00
  2.00000000E+00  3.00000000E+00  1.00000000E+00  3.00000000E+00  2.00000000E+00
  3.00000000E+00  2.00000000E+00  2.00000000E+00  1.00000000E+00  2.00000000E+00
  2.00000000E+00  3.00000000E+00  3.00000000E+00  2.00000000E+00
%FLAG DIHEDRAL_PHASE                                                            
%FORMAT(5E16.8)                                                                 
  0.00000000E+00  0.00000000E+00  0.00000000E+00  0.00000000E+00  3.14159400E+00
  0.00000000E+00  0.00000000E+00  0.00000000E+00  0.00000000E+00  3.14159400E+00
  0.00000000E+00  3.14159400E+00  0.00000000E+00  0.00000000E+00  0.00000000E+00
  0.00000000E+00  3.14159400E+00  3.14159400E+00  0.00000000E+00  0.00000000E+00
  0.00000000E+00  0.00000000E+00  0.00000000E+00  3.14159400E+00
%FLAG SCEE_SCALE_FACTOR                                                         
%FORMAT(5E16.8)                                                                 
  1.20000000E+00  1.20000000E+00  1.20000000E+00  1.20000000E+00  1.20000000E+00
  1.20000000E+00  1.20000000E+00  1.20000000E+00  1.20000000E+00  1.20000000E+00
  1.20000000E+00  1.20000000E+00  1.20000000E+00  1.20000000E+00  1.20000000E+00
  1.20000000E+00  1.20000000E+00  1.20000000E+00  1.20000000E+00  1.20000000E+00
  1.20000000E+00  1.20000000E+00  1.20000000E+00  0.00000000E+00
%FLAG SCNB_SCALE_FACTOR                                                         
%FORMAT(5E16.8)                                                                 
  2.00000000E+00  2.00000000E+00  2.00000000E+00  2.00000000E+00  2.00000000E+00
  2.00000000E+00  2.00000000E+00  2.00000000E+00  2.00000000E+00  2.00000000E+00
  2.00000000E+00  2.00000000E+00  2.00000000E+00  2.00000000E+00  2.00000000E+00
  2.00000000E+00  2.00000000E+00  2.00000000E+00  2.00000000E+00  2.00000000E+00
  2.00000000E+00  2.00000000E+00  2.00000000E+00  0.00000000E+00
%FLAG SOLTY                                                                     
%FORMAT(5E16.8)                                                                 
  0.00000000E+00  0.00000000E+00  0.00000000E+00  0.00000000E+00  0.00000000E+00
  0.00000000E+00  0.00000000E+00  0.00000000E+00  0.00000000E+00  0.00000000E+00
  0.00000000E+00  0.00000000E+00  0.00000000E+00
%FLAG LENNARD_JONES_ACOEF                                                       
%FORMAT(5E16.8)                                                                 
  1.02073671E+06  5.42502534E+05  2.83662575E+05  8.43969952E+05  4.46121722E+05
  6.96551276E+05  9.93125065E+05  5.20510209E+05  8.17329084E+05  9.54790629E+05
  7.18991463E+05  3.78207390E+05  5.92438683E+05  6.93394194E+05  5.03152404E+05
  1.03317389E+06  5.24759147E+05  8.41448277E+05  9.66973081E+05  7.07182147E+05
  9.21619602E+05  1.00235148E+05  5.02224902E+04  8.12662403E+04  9.27277603E+04
  6.80216136E+04  8.60730206E+04  7.94617769E+03  6.97998263E+04  3.44374471E+04
  5.63013422E+04  6.37258620E+04  4.69084694E+04  5.73997265E+04  5.22955465E+03
  3.39005767E+03  4.80619274E+04  2.33261683E+04  3.85565555E+04  4.32678629E+04
  3.19666529E+04  3.77401425E+04  3.39005767E+03  2.16218723E+03  1.35510742E+03
  9.27554496E+04  4.65732396E+04  7.52549148E+04  8.59636060E+04  6.30298721E+04
  8.01234084E+04  7.41026906E+03  4.88692384E+03  3.17496391E+03  6.90855956E+03
  3.03553352E+02  1.16469347E+02  2.25372434E+02  2.23617883E+02  1.74176419E+02
  1.21544619E+02  8.80612241E+00  4.36660257E+00  2.07292270E+00  8.53132435E+00
  1.10360882E-05  2.19657590E+04  1.02811573E+04  1.74110867E+04  1.91715719E+04
  1.42796035E+04  1.55708385E+04  1.35510742E+03  8.33358592E+02  5.02080452E+02
  1.27542632E+03  4.00077273E-01  1.70079100E+02  2.23577481E+03  9.46795083E+02
  1.71458823E+03  1.79157166E+03  1.36475542E+03  1.19134558E+03  9.47421632E+01
  5.24570081E+01  2.81680913E+01  9.04434904E+01  2.61760843E-03  7.30589786E+00
  1.34728399E-01
%FLAG LENNARD_JONES_BCOEF                                                       
%FORMAT(5E16.8)                                                                 
  6.63431737E+02  4.38146883E+02  2.87011518E+02  5.90251928E+02  3.88758656E+02
  5.24668528E+02  7.77671659E+02  5.10021392E+02  6.90283231E+02  9.06156687E+02
  5.36620538E+02  3.52573684E+02  4.76608379E+02  6.26253907E+02  4.32634597E+02
  1.20496038E+03  7.77938977E+02  1.06398209E+03  1.38531384E+03  9.60766272E+02
  2.05451157E+03  1.37787728E+02  8.83545880E+01  1.21392023E+02  1.57492664E+02
  1.09393126E+02  2.30505198E+02  2.57122925E+01  1.14981426E+02  7.31636661E+01
  1.01040256E+02  1.30560951E+02  9.08431526E+01  1.88235752E+02  2.08590256E+01
  1.67944276E+01  9.54115851E+01  6.02145835E+01  8.36149973E+01  1.07581642E+02
  7.49920368E+01  1.52633186E+02  1.67944276E+01  1.34124560E+01  1.06181419E+01
  1.24325688E+02  7.98066064E+01  1.09570372E+02  1.42233990E+02  9.87712192E+01
  2.08601556E+02  2.32899892E+01  1.89134207E+01  1.52447987E+01  2.10929191E+01
  5.22789272E+00  2.93355636E+00  4.40751799E+00  5.33233396E+00  3.81654050E+00
  5.97205364E+00  5.90150328E-01  4.15568027E-01  2.86326700E-01  5.44840215E-01
  4.55498033E-04  6.45020662E+01  3.99761520E+01  5.61885732E+01  7.16117531E+01
  5.01215671E+01  9.80399772E+01  1.06181419E+01  8.32679019E+00  6.46321078E+00
  9.66228818E+00  1.25788875E-01  3.76172582E+00  1.71355763E+01  1.01016461E+01
  1.46824710E+01  1.82287422E+01  1.29026271E+01  2.25813679E+01  2.33785449E+00
  1.73959275E+00  1.27474859E+00  2.14252117E+00  8.47240681E-03  6.49206153E-01
  7.34107347E-02
%FLAG BONDS_INC_HYDROGEN                                                        
%FORMAT(10I8)                                                                   
       0      51       2       0      54       2       0      57       2       3
      60       4       9      63       6      15      66       8      18      69
       8      27      72      11      30      75      11      33      78       8
      36      81       8      42      84       4      42      87       4      45
      90      13      48      93      14      48      96      14      48      99
      14
%FLAG BONDS_WITHOUT_HYDROGEN                                                    
%FORMAT(10I8)                                                                   
       0       3       1       3       6       3       3      45       1       6
       9       3       9      12       5       9      39       3      12      15
       7      12      36       7      15      18       7      18      21       7
      21      24       9      21      33       7      24      27      10      24
      30      10      33      36       7      39      42       3      42      45
       1      45      48      12
%FLAG ANGLES_INC_HYDROGEN                                                       
%FORMAT(10I8)                                                                   
       0       3      60       3       3       0      51       4       3       0
      54       4       3       0      57       4       3      45      90       7
       6       3      60       8       6       9      63      11      12       9
      63      13      12      15      66      15      12      36      81      15
      15      18      69      15      18      15      66      15      21      18
      69      15      21      33      78      15      24      27      72      18
      24      30      75      18      33      36      81      15      36      33
      78      15      39       9      63      11      39      42      84       8
      39      42      87       8      42      45      90       7      45      42
      84       3      45      42      87       3      45      48      93      20
      45      48      96      20      45      48      99      20      45       3
      60       3      48      45      90      21      51       0      54      22
      51       0      57      22      54       0      57      22      84      42
      87      23      93      48      96      24      93      48      99      24
      96      48      99      24
%FLAG ANGLES_WITHOUT_HYDROGEN                                                   
%FORMAT(10I8)                                                                   
       0       3       6       1       0       3      45       2       3       6
       9       5       3      45      42       2       3      45      48       6
       6       3      45       1       6       9      12       9       6       9
      39      10       9      12      15      12       9      12      36      12
       9      39      42       5      12       9      39       9      12      15
      18      14      12      36      33      14      15      12      36      14
      15      18      21      14      18      21      24      16      18      21
      33      14      21      24      27      17      21      24      30      17
      21      33      36      14      24      21      33      16      27      24
      30      19      39      42      45       1      42      45      48       6
%FLAG DIHEDRALS_INC_HYDROGEN                                                    
%FORMAT(10I8)                                                                   
       0       3      45      90       8       3       6       9      63       9
       3      45      42      84       8       3      45      42      87       8
       3      45      48      93       8       3      45      48      96       8
       3      45      48      99       8      51       0       3       6      13
      51       0      -3       6      14      54       0       3       6      13
      54       0      -3       6      14      57       0       3       6      13
      57       0      -3       6      14       6       3      45      90       8
       9       6       3      60      16       9      12      15      66      17
       9      12      36      81      17       9      39      42      84      16
       9      39      42      87      16      12      15      18      69      17
      12      36      33      78      17      15      12       9      63      15
      15      12      36      81      17      18      21      33      78      17
      21      18      15      66      17      21      24      27      72      19
      21      24     -27      72      20      21      24      30      75      19
      21      24     -30      75      20      21      33      36      81      17
      24      21      18      69      17      24      21      33      78      17
      27      24      30      75      21      30      24      27      72      21
      33      21      18      69      17      36      12       9      63      15
      36      12      15      66      17      39      42      45      90       8
      42      39       9      63       9      42      45      48      93       8
      42      45      48      96       8      42      45      48      99       8
      42      45       3      60       8      51       0       3      45      22
      54       0       3      45      22      57       0       3      45      22
      48      45      42      84       8      48      45      42      87       8
      48      45       3      60       8      51       0       3      60       8
      54       0       3      60       8      57       0       3      60       8
      60       3      45      90       8      66      15      18      69      17
      78      33      36      81      17      84      42      45      90       8
      87      42      45      90       8      90      45      48      93      23
      90      45      48      96      23      90      45      48      99      23
      12      18     -15     -66      24      15      21     -18     -69      24
      21      36     -33     -78      24      12      33     -36     -81      24
%FLAG DIHEDRALS_WITHOUT_HYDROGEN                                                
%FORMAT(10I8)                                                                   
       0       3       6       9       1       0       3      -6       9       2
       0       3      -6       9       3       0       3      45      42       4
       0       3     -45      42       5       0       3     -45      42       6
       0       3      45      48       7       3       6       9      12       9
       3       6       9      39      10       3       6      -9      39      11
       3       6      -9      39      12       3      45     -42      39       8
       6       3      45      42       8       6       3      45      48       8
       6       9      12      15      15       6       9      12      36      15
       6       9     -39      42      10       6       9     -39      42      11
       6       9     -39      42      12       9       6       3      45       1
       9       6      -3      45       2       9       6      -3      45       3
       9      12      15      18      17       9      12      36      33      17
       9      39     -42      45       1       9      39     -42      45       2
       9      39     -42      45       3      12       9      39      42       9
      12      15      18      21      17      12      36     -33      21      17
      15      12       9      39      15      15      12      36      33      17
      15      18      21      24      17      15      18     -21      33      17
      18      15      12      36      17      18      21      24      27      18
      18      21      24      30      18      18      21     -33      36      17
      24      21      33      36      17      27      24      21      33      18
      30      24      21      33      18      36      12       9      39      15
      39      42      45      48       8      15      36     -12      -9      24
      18      33     -21     -24      24      21      27     -24     -30      24
%FLAG EXCLUDED_ATOMS_LIST                                                       
%FORMAT(10I8)                                                                   
       2       3       4      15      16      17      18      19      20      21
      31       3       4       5      14      15      16      17      18      19
      20      21      22      29      30      31      32      33      34       4
       5       6      13      14      15      16      17      18      19      20
      21      22      31       5       6       7      12      13      14      15
      16      21      22      23      28      29      30       6       7       8
      12      13      14      15      22      23      24      27      28       7
       8       9      12      13      14      22      23      24      28       8
       9      10      11      12      13      23      24      27       9      10
      11      12      13      23      24      25      26      27      28      10
      11      12      13      24      25      26      27      11      12      25
      26      12      25      26      13      24      27      28      14      22
      23      27      28      15      16      17      22      29      30      31
      16      17      21      22      29      30      31      32      33      34
      17      18      19      20      21      29      30      31      32      33
      34      21      29      30      31      32      33      34      19      20
      21      20      21      21      31       0      24       0       0       0
      28       0      30      31      31      32      33      34      33      34
      34       0
%FLAG HBOND_ACOEF                                                               
%FORMAT(5E16.8)                                                                 

%FLAG HBOND_BCOEF                                                               
%FORMAT(5E16.8)                                                                 

%FLAG HBCUT                                                                     
%FORMAT(5E16.8)                                                                 

%FLAG AMBER_ATOM_TYPE                                                           
%FORMAT(20a4)                                                                   
c3  c3  os  c3  ca  ca  ca  ca  nh  oh  oh  ca  ca  os  c3  c3  nz  hc  hc  hc  
h1  h2  ha  ha  ho  ho  ha  ha  h1  h1  hx  hn  hn  hn  
%FLAG TREE_CHAIN_CLASSIFICATION                                                 
%FORMAT(20a4)                                                                   
BLA BLA BLA BLA BLA BLA BLA BLA BLA BLA BLA BLA BLA BLA BLA BLA BLA BLA BLA BLA 
BLA BLA BLA BLA BLA BLA BLA BLA BLA BLA BLA BLA BLA BLA 
%FLAG JOIN_ARRAY                                                                
%FORMAT(10I8)                                                                   
       0       0       0       0       0       0       0       0       0       0
       0       0       0       0       0       0       0       0       0       0
       0       0       0       0       0       0       0       0       0       0
       0       0       0       0
%FLAG IROTAT                                                                    
%FORMAT(10I8)                                                                   
       0       0       0       0       0       0       0       0       0       0
       0       0       0       0       0       0       0       0       0       0
       0       0       0       0       0       0       0       0       0       0
       0       0       0       0
%FLAG RADIUS_SET                                                                
%FORMAT(1a80)                                                                   
modified Bondi radii (mbondi)                                                   
%FLAG RADII                                                                     
%FORMAT(5E16.8)                                                                 
  1.70000000E+00  1.70000000E+00  1.50000000E+00  1.70000000E+00  1.70000000E+00
  1.70000000E+00  1.70000000E+00  1.70000000E+00  1.55000000E+00  1.50000000E+00
  1.50000000E+00  1.70000000E+00  1.70000000E+00  1.50000000E+00  1.70000000E+00
  1.70000000E+00  1.55000000E+00  1.30000000E+00  1.30000000E+00  1.30000000E+00
  1.30000000E+00  1.30000000E+00  1.30000000E+00  1.30000000E+00  8.00000000E-01
  8.00000000E-01  1.30000000E+00  1.30000000E+00  1.30000000E+00  1.30000000E+00
  1.30000000E+00  1.30000000E+00  1.30000000E+00  1.30000000E+00
%FLAG SCREEN                                                                    
%FORMAT(5E16.8)                                                                 
  7.20000000E-01  7.20000000E-01  8.50000000E-01  7.20000000E-01  7.20000000E-01
  7.20000000E-01  7.20000000E-01  7.20000000E-01  7.90000000E-01  8.50000000E-01
  8.50000000E-01  7.20000000E-01  7.20000000E-01  8.50000000E-01  7.20000000E-01
  7.20000000E-01  7.90000000E-01  8.50000000E-01  8.50000000E-01  8.50000000E-01
  8.50000000E-01  8.50000000E-01  8.50000000E-01  8.50000000E-01  8.50000000E-01
  8.50000000E-01  8.50000000E-01  8.50000000E-01  8.50000000E-01  8.50000000E-01
  8.50000000E-01  8.50000000E-01  8.50000000E-01  8.50000000E-01
%FLAG IPOL                                                                      
%FORMAT(1I8)                                                                    
       0
