MOL
    34
   2.9210000   2.6280000   0.6180000   1.6630000   2.0240000   1.2350000
   1.3830000   0.7180000   0.7190000   0.9150000   0.7030000  -0.6380000
   0.5950000  -0.7270000  -1.0280000   1.3360000  -1.8000000  -0.5090000
   1.0610000  -3.1180000  -0.8940000   0.0510000  -3.4080000  -1.8190000
  -0.2230000  -4.7390000  -2.2040000   0.4610000  -5.8080000  -1.6630000
  -1.1590000  -5.0370000  -3.1740000  -0.6730000  -2.3360000  -2.3530000
  -0.4030000  -1.0160000  -1.9710000  -0.2830000   1.4890000  -0.7260000
  -0.0500000   2.8540000  -0.3770000   0.4040000   2.8960000   1.0840000
  -0.6890000   2.2190000   1.8860000   2.8250000   2.8010000  -0.4570000
   3.1660000   3.5830000   1.0950000   3.7670000   1.9460000   0.7490000
   1.8680000   1.8870000   2.3040000   1.6780000   1.0850000  -1.3260000
   2.1420000  -1.6270000   0.2010000   1.6550000  -3.9260000  -0.4710000
  -0.2690000  -6.3380000  -1.2950000  -0.5880000  -5.2680000  -3.9300000
  -1.4630000  -2.5250000  -3.0780000  -0.9870000  -0.2180000  -2.4260000
   0.6770000   3.3010000  -1.0620000  -0.9950000   3.3940000  -0.5010000
   0.5250000   3.9100000   1.4740000  -0.8110000   1.2660000   1.4960000
  -0.4540000   2.1080000   2.8800000  -1.5980000   2.6900000   1.8050000
